LIG_GMX.gro created by acpype (v: 2023.10.27) on Wed Aug  5 14:23:01 2026
 30
    1  LIG    C    1   0.555   0.544  -0.225
    1  LIG   C1    2   0.521   0.618  -0.339
    1  LIG   C2    3   0.612   0.710  -0.391
    1  LIG   C3    4   0.737   0.729  -0.328
    1  LIG   C4    5   0.837   0.823  -0.370
    1  LIG   C5    6   0.958   0.832  -0.300
    1  LIG   C6    7   0.982   0.751  -0.188
    1  LIG   C7    8   0.886   0.660  -0.146
    1  LIG   C8    9   0.764   0.649  -0.214
    1  LIG   C9   10   0.464   0.443  -0.162
    1  LIG  C10   11   0.418   0.466  -0.031
    1  LIG  C11   12   0.334   0.374   0.033
    1  LIG  C12   13   0.295   0.258  -0.033
    1  LIG  C13   14   0.338   0.234  -0.164
    1  LIG  C14   15   0.421   0.326  -0.229
    1  LIG    O   16   0.580   0.773  -0.491
    1  LIG   O1   17   0.675   0.562  -0.169
    1  LIG   O2   18   0.216   0.169   0.031
    1  LIG   O3   19   0.822   0.907  -0.475
    1  LIG   O4   20   1.097   0.762  -0.119
    1  LIG    H   21   0.245   0.078   0.048
    1  LIG   H1   22   0.879   0.982  -0.497
    1  LIG   H2   23   1.181   0.787  -0.162
    1  LIG   HC   24   0.425   0.603  -0.387
    1  LIG  HC1   25   1.034   0.902  -0.332
    1  LIG  HC2   26   0.905   0.598  -0.060
    1  LIG  HC3   27   0.447   0.556   0.022
    1  LIG  HC4   28   0.300   0.393   0.134
    1  LIG  HC5   29   0.307   0.144  -0.216
    1  LIG  HC6   30   0.454   0.307  -0.330
   19.28800    18.07600    12.61800
