; LIG_GMX.itp created by acpype (v: 2023.10.27) on Wed Aug  5 14:23:01 2026

[ atomtypes ]
;name   bond_type     mass     charge   ptype   sigma         epsilon       Amb
 cc       cc          0.00000  0.00000   A     3.31521e-01   4.13379e-01 ; 1.86  0.0988
 cd       cd          0.00000  0.00000   A     3.31521e-01   4.13379e-01 ; 1.86  0.0988
 c        c           0.00000  0.00000   A     3.31521e-01   4.13379e-01 ; 1.86  0.0988
 ca       ca          0.00000  0.00000   A     3.31521e-01   4.13379e-01 ; 1.86  0.0988
 o        o           0.00000  0.00000   A     3.04812e-01   6.12119e-01 ; 1.71  0.1463
 os       os          0.00000  0.00000   A     3.15610e-01   3.03758e-01 ; 1.77  0.0726
 oh       oh          0.00000  0.00000   A     3.24287e-01   3.89112e-01 ; 1.82  0.0930
 ho       ho          0.00000  0.00000   A     5.37925e-02   1.96648e-02 ; 0.30  0.0047
 ha       ha          0.00000  0.00000   A     2.62548e-01   6.73624e-02 ; 1.47  0.0161

[ moleculetype ]
;name            nrexcl
 LIG              3

[ atoms ]
;   nr  type  resi  res  atom  cgnr     charge      mass       ; qtot   bond_type
     1   cc     1   LIG     C    1     0.193900     12.01000 ; qtot 0.194
     2   cd     1   LIG    C1    2    -0.315200     12.01000 ; qtot -0.121
     3    c     1   LIG    C2    3     0.595900     12.01000 ; qtot 0.475
     4   ca     1   LIG    C3    4    -0.276600     12.01000 ; qtot 0.198
     5   ca     1   LIG    C4    5     0.247100     12.01000 ; qtot 0.445
     6   ca     1   LIG    C5    6    -0.349000     12.01000 ; qtot 0.096
     7   ca     1   LIG    C6    7     0.216100     12.01000 ; qtot 0.312
     8   ca     1   LIG    C7    8    -0.232000     12.01000 ; qtot 0.080
     9   ca     1   LIG    C8    9     0.210100     12.01000 ; qtot 0.290
    10   ca     1   LIG    C9   10    -0.113800     12.01000 ; qtot 0.176
    11   ca     1   LIG   C10   11    -0.055500     12.01000 ; qtot 0.121
    12   ca     1   LIG   C11   12    -0.193500     12.01000 ; qtot -0.072
    13   ca     1   LIG   C12   13     0.147100     12.01000 ; qtot 0.075
    14   ca     1   LIG   C13   14    -0.193500     12.01000 ; qtot -0.119
    15   ca     1   LIG   C14   15    -0.055500     12.01000 ; qtot -0.174
    16    o     1   LIG     O   16    -0.526100     16.00000 ; qtot -0.700
    17   os     1   LIG    O1   17    -0.225200     16.00000 ; qtot -0.926
    18   oh     1   LIG    O2   18    -0.491100     16.00000 ; qtot -1.417
    19   oh     1   LIG    O3   19    -0.448100     16.00000 ; qtot -1.865
    20   oh     1   LIG    O4   20    -0.485100     16.00000 ; qtot -2.350
    21   ho     1   LIG     H   21     0.424000      1.00800 ; qtot -1.926
    22   ho     1   LIG    H1   22     0.421000      1.00800 ; qtot -1.505
    23   ho     1   LIG    H2   23     0.427000      1.00800 ; qtot -1.078
    24   ha     1   LIG    HC   24     0.167000      1.00800 ; qtot -0.911
    25   ha     1   LIG   HC1   25     0.143000      1.00800 ; qtot -0.768
    26   ha     1   LIG   HC2   26     0.173000      1.00800 ; qtot -0.595
    27   ha     1   LIG   HC3   27     0.149000      1.00800 ; qtot -0.446
    28   ha     1   LIG   HC4   28     0.148500      1.00800 ; qtot -0.297
    29   ha     1   LIG   HC5   29     0.148500      1.00800 ; qtot -0.149
    30   ha     1   LIG   HC6   30     0.149000      1.00800 ; qtot 0.000

[ bonds ]
;   ai     aj funct   r             k
     1      2   1    1.3730e-01    3.2321e+05 ;      C - C1    
     1     10   1    1.4528e-01    2.4811e+05 ;      C - C9    
     1     17   1    1.3622e-01    2.9388e+05 ;      C - O1    
     2      3   1    1.4728e-01    2.3273e+05 ;     C1 - C2    
     2     24   1    1.0835e-01    3.0510e+05 ;     C1 - HC    
     3      4   1    1.4907e-01    2.1994e+05 ;     C2 - C3    
     3     16   1    1.2190e-01    4.9421e+05 ;     C2 - O     
     4      5   1    1.3986e-01    2.9644e+05 ;     C3 - C4    
     4      9   1    1.3986e-01    2.9644e+05 ;     C3 - C8    
     5      6   1    1.3986e-01    2.9644e+05 ;     C4 - C5    
     5     19   1    1.3644e-01    2.9167e+05 ;     C4 - O3    
     6      7   1    1.3986e-01    2.9644e+05 ;     C5 - C6    
     6     25   1    1.0860e-01    3.0183e+05 ;     C5 - HC1   
     7      8   1    1.3986e-01    2.9644e+05 ;     C6 - C7    
     7     20   1    1.3644e-01    2.9167e+05 ;     C6 - O4    
     8      9   1    1.3986e-01    2.9644e+05 ;     C7 - C8    
     8     26   1    1.0860e-01    3.0183e+05 ;     C7 - HC2   
     9     17   1    1.3688e-01    2.8731e+05 ;     C8 - O1    
    10     11   1    1.3986e-01    2.9644e+05 ;     C9 - C10   
    10     15   1    1.3986e-01    2.9644e+05 ;     C9 - C14   
    11     12   1    1.3986e-01    2.9644e+05 ;    C10 - C11   
    11     27   1    1.0860e-01    3.0183e+05 ;    C10 - HC3   
    12     13   1    1.3986e-01    2.9644e+05 ;    C11 - C12   
    12     28   1    1.0860e-01    3.0183e+05 ;    C11 - HC4   
    13     14   1    1.3986e-01    2.9644e+05 ;    C12 - C13   
    13     18   1    1.3644e-01    2.9167e+05 ;    C12 - O2    
    14     15   1    1.3986e-01    2.9644e+05 ;    C13 - C14   
    14     29   1    1.0860e-01    3.0183e+05 ;    C13 - HC5   
    15     30   1    1.0860e-01    3.0183e+05 ;    C14 - HC6   
    18     21   1    9.7250e-02    4.4811e+05 ;     O2 - H     
    19     22   1    9.7250e-02    4.4811e+05 ;     O3 - H1    
    20     23   1    9.7250e-02    4.4811e+05 ;     O4 - H2    

[ pairs ]
;   ai     aj    funct
     1      4      1 ;      C - C3    
     1      8      1 ;      C - C7    
     1     12      1 ;      C - C11   
     1     14      1 ;      C - C13   
     1     16      1 ;      C - O     
     1     27      1 ;      C - HC3   
     1     30      1 ;      C - HC6   
     2      5      1 ;     C1 - C4    
     2      9      1 ;     C1 - C8    
     2     11      1 ;     C1 - C10   
     2     15      1 ;     C1 - C14   
     3      6      1 ;     C2 - C5    
     3      8      1 ;     C2 - C7    
     3     19      1 ;     C2 - O3    
     4      7      1 ;     C3 - C6    
     4     22      1 ;     C3 - H1    
     4     24      1 ;     C3 - HC    
     4     25      1 ;     C3 - HC1   
     4     26      1 ;     C3 - HC2   
     5      8      1 ;     C4 - C7    
     5     16      1 ;     C4 - O     
     5     17      1 ;     C4 - O1    
     5     20      1 ;     C4 - O4    
     6      9      1 ;     C5 - C8    
     6     22      1 ;     C5 - H1    
     6     23      1 ;     C5 - H2    
     6     26      1 ;     C5 - HC2   
     7     17      1 ;     C6 - O1    
     7     19      1 ;     C6 - O3    
     8     23      1 ;     C7 - H2    
     8     25      1 ;     C7 - HC1   
     9     16      1 ;     C8 - O     
     9     19      1 ;     C8 - O3    
     9     20      1 ;     C8 - O4    
    10      3      1 ;     C9 - C2    
    10      9      1 ;     C9 - C8    
    10     13      1 ;     C9 - C12   
    10     24      1 ;     C9 - HC    
    10     28      1 ;     C9 - HC4   
    10     29      1 ;     C9 - HC5   
    11     14      1 ;    C10 - C13   
    11     18      1 ;    C10 - O2    
    11     30      1 ;    C10 - HC6   
    12     15      1 ;    C11 - C14   
    12     21      1 ;    C11 - H     
    12     29      1 ;    C11 - HC5   
    13     27      1 ;    C12 - HC3   
    13     30      1 ;    C12 - HC6   
    14     21      1 ;    C13 - H     
    14     28      1 ;    C13 - HC4   
    15     18      1 ;    C14 - O2    
    15     27      1 ;    C14 - HC3   
    16     24      1 ;      O - HC    
    17      3      1 ;     O1 - C2    
    17     11      1 ;     O1 - C10   
    17     15      1 ;     O1 - C14   
    17     24      1 ;     O1 - HC    
    17     26      1 ;     O1 - HC2   
    18     28      1 ;     O2 - HC4   
    18     29      1 ;     O2 - HC5   
    19     25      1 ;     O3 - HC1   
    20     25      1 ;     O4 - HC1   
    20     26      1 ;     O4 - HC2   
    27     28      1 ;    HC3 - HC4   
    29     30      1 ;    HC5 - HC6   

[ angles ]
;   ai     aj     ak    funct   theta         cth
     1      2      3      1    1.2132e+02    5.1965e+02 ;      C - C1     - C2    
     1      2     24      1    1.2170e+02    3.7865e+02 ;      C - C1     - HC    
     1     10     11      1    1.2091e+02    5.2041e+02 ;      C - C9     - C10   
     1     10     15      1    1.2091e+02    5.2041e+02 ;      C - C9     - C14   
     1     17      9      1    1.0590e+02    8.0023e+02 ;      C - O1     - C8    
     2      1     10      1    1.1603e+02    5.3555e+02 ;     C1 - C      - C9    
     2      1     17      1    1.1153e+02    6.9136e+02 ;     C1 - C      - O1    
     2      3      4      1    1.1749e+02    5.0827e+02 ;     C1 - C2     - C3    
     2      3     16      1    1.2371e+02    6.5530e+02 ;     C1 - C2     - O     
     3      2     24      1    1.1638e+02    3.6526e+02 ;     C2 - C1     - HC    
     3      4      5      1    1.2033e+02    5.1413e+02 ;     C2 - C3     - C4    
     3      4      9      1    1.2033e+02    5.1413e+02 ;     C2 - C3     - C8    
     4      3     16      1    1.2260e+02    6.5237e+02 ;     C3 - C2     - O     
     4      5      6      1    1.2002e+02    5.3279e+02 ;     C3 - C4     - C5    
     4      5     19      1    1.1990e+02    6.5990e+02 ;     C3 - C4     - O3    
     4      9      8      1    1.2002e+02    5.3279e+02 ;     C3 - C8     - C7    
     4      9     17      1    1.1911e+02    6.6107e+02 ;     C3 - C8     - O1    
     5      4      9      1    1.2002e+02    5.3279e+02 ;     C4 - C3     - C8    
     5      6      7      1    1.2002e+02    5.3279e+02 ;     C4 - C5     - C6    
     5      6     25      1    1.1988e+02    3.7572e+02 ;     C4 - C5     - HC1   
     5     19     22      1    1.0858e+02    5.6409e+02 ;     C4 - O3     - H1    
     6      5     19      1    1.1990e+02    6.5990e+02 ;     C5 - C4     - O3    
     6      7      8      1    1.2002e+02    5.3279e+02 ;     C5 - C6     - C7    
     6      7     20      1    1.1990e+02    6.5990e+02 ;     C5 - C6     - O4    
     7      6     25      1    1.1988e+02    3.7572e+02 ;     C6 - C5     - HC1   
     7      8      9      1    1.2002e+02    5.3279e+02 ;     C6 - C7     - C8    
     7      8     26      1    1.1988e+02    3.7572e+02 ;     C6 - C7     - HC2   
     7     20     23      1    1.0858e+02    5.6409e+02 ;     C6 - O4     - H2    
     8      7     20      1    1.1990e+02    6.5990e+02 ;     C7 - C6     - O4    
     8      9     17      1    1.1911e+02    6.6107e+02 ;     C7 - C8     - O1    
     9      8     26      1    1.1988e+02    3.7572e+02 ;     C8 - C7     - HC2   
    10      1     17      1    1.1590e+02    6.5764e+02 ;     C9 - C      - O1    
    10     11     12      1    1.2002e+02    5.3279e+02 ;     C9 - C10    - C11   
    10     11     27      1    1.1988e+02    3.7572e+02 ;     C9 - C10    - HC3   
    10     15     14      1    1.2002e+02    5.3279e+02 ;     C9 - C14    - C13   
    10     15     30      1    1.1988e+02    3.7572e+02 ;     C9 - C14    - HC6   
    11     10     15      1    1.2002e+02    5.3279e+02 ;    C10 - C9     - C14   
    11     12     13      1    1.2002e+02    5.3279e+02 ;    C10 - C11    - C12   
    11     12     28      1    1.1988e+02    3.7572e+02 ;    C10 - C11    - HC4   
    12     11     27      1    1.1988e+02    3.7572e+02 ;    C11 - C10    - HC3   
    12     13     14      1    1.2002e+02    5.3279e+02 ;    C11 - C12    - C13   
    12     13     18      1    1.1990e+02    6.5990e+02 ;    C11 - C12    - O2    
    13     12     28      1    1.1988e+02    3.7572e+02 ;    C12 - C11    - HC4   
    13     14     15      1    1.2002e+02    5.3279e+02 ;    C12 - C13    - C14   
    13     14     29      1    1.1988e+02    3.7572e+02 ;    C12 - C13    - HC5   
    13     18     21      1    1.0858e+02    5.6409e+02 ;    C12 - O2     - H     
    14     13     18      1    1.1990e+02    6.5990e+02 ;    C13 - C12    - O2    
    14     15     30      1    1.1988e+02    3.7572e+02 ;    C13 - C14    - HC6   
    15     14     29      1    1.1988e+02    3.7572e+02 ;    C14 - C13    - HC5   

[ dihedrals ] ; propers
; for gromacs 4.5 or higher, using funct 9
;    i      j      k      l   func   phase     kd      pn
     1      2      3      4      9   180.00  12.02900   2 ;      C-    C1-    C2-    C3
     1      2      3     16      9   180.00  12.02900   2 ;      C-    C1-    C2-     O
     1     10     11     12      9   180.00  15.16700   2 ;      C-    C9-   C10-   C11
     1     10     11     27      9   180.00  15.16700   2 ;      C-    C9-   C10-   HC3
     1     10     15     14      9   180.00  15.16700   2 ;      C-    C9-   C14-   C13
     1     10     15     30      9   180.00  15.16700   2 ;      C-    C9-   C14-   HC6
     1     17      9      4      9   180.00   7.63580   2 ;      C-    O1-    C8-    C3
     1     17      9      8      9   180.00   7.63580   2 ;      C-    O1-    C8-    C7
     2      1     10     11      9   180.00   2.44764   2 ;     C1-     C-    C9-   C10
     2      1     10     15      9   180.00   2.44764   2 ;     C1-     C-    C9-   C14
     2      1     17      9      9   180.00   2.71960   1 ;     C1-     C-    O1-    C8
     2      3      4      5      9   180.00   4.18400   2 ;     C1-    C2-    C3-    C4
     2      3      4      9      9   180.00   4.18400   2 ;     C1-    C2-    C3-    C8
     3      4      5      6      9   180.00  15.16700   2 ;     C2-    C3-    C4-    C5
     3      4      5     19      9   180.00  15.16700   2 ;     C2-    C3-    C4-    O3
     3      4      9      8      9   180.00  15.16700   2 ;     C2-    C3-    C8-    C7
     3      4      9     17      9   180.00  15.16700   2 ;     C2-    C3-    C8-    O1
     4      3      2     24      9   180.00  12.02900   2 ;     C3-    C2-    C1-    HC
     4      5      6      7      9   180.00  15.16700   2 ;     C3-    C4-    C5-    C6
     4      5      6     25      9   180.00  15.16700   2 ;     C3-    C4-    C5-   HC1
     4      5     19     22      9   180.00   3.57732   2 ;     C3-    C4-    O3-    H1
     4      9      8      7      9   180.00  15.16700   2 ;     C3-    C8-    C7-    C6
     4      9      8     26      9   180.00  15.16700   2 ;     C3-    C8-    C7-   HC2
     5      4      3     16      9   180.00   2.42672   2 ;     C4-    C3-    C2-     O
     5      4      9      8      9   180.00  15.16700   2 ;     C4-    C3-    C8-    C7
     5      4      9     17      9   180.00  15.16700   2 ;     C4-    C3-    C8-    O1
     5      6      7      8      9   180.00  15.16700   2 ;     C4-    C5-    C6-    C7
     5      6      7     20      9   180.00  15.16700   2 ;     C4-    C5-    C6-    O4
     6      5      4      9      9   180.00  15.16700   2 ;     C5-    C4-    C3-    C8
     6      5     19     22      9   180.00   3.57732   2 ;     C5-    C4-    O3-    H1
     6      7      8      9      9   180.00  15.16700   2 ;     C5-    C6-    C7-    C8
     6      7      8     26      9   180.00  15.16700   2 ;     C5-    C6-    C7-   HC2
     6      7     20     23      9   180.00   3.57732   2 ;     C5-    C6-    O4-    H2
     7      6      5     19      9   180.00  15.16700   2 ;     C6-    C5-    C4-    O3
     7      8      9     17      9   180.00  15.16700   2 ;     C6-    C7-    C8-    O1
     8      7      6     25      9   180.00  15.16700   2 ;     C7-    C6-    C5-   HC1
     8      7     20     23      9   180.00   3.57732   2 ;     C7-    C6-    O4-    H2
     9      4      3     16      9   180.00   2.42672   2 ;     C8-    C3-    C2-     O
     9      4      5     19      9   180.00  15.16700   2 ;     C8-    C3-    C4-    O3
     9      8      7     20      9   180.00  15.16700   2 ;     C8-    C7-    C6-    O4
    10      1      2      3      9   180.00  16.73600   2 ;     C9-     C-    C1-    C2
    10      1      2     24      9   180.00  16.73600   2 ;     C9-     C-    C1-    HC
    10      1     17      9      9   180.00   2.71960   1 ;     C9-     C-    O1-    C8
    10     11     12     13      9   180.00  15.16700   2 ;     C9-   C10-   C11-   C12
    10     11     12     28      9   180.00  15.16700   2 ;     C9-   C10-   C11-   HC4
    10     15     14     13      9   180.00  15.16700   2 ;     C9-   C14-   C13-   C12
    10     15     14     29      9   180.00  15.16700   2 ;     C9-   C14-   C13-   HC5
    11     10     15     14      9   180.00  15.16700   2 ;    C10-    C9-   C14-   C13
    11     10     15     30      9   180.00  15.16700   2 ;    C10-    C9-   C14-   HC6
    11     12     13     14      9   180.00  15.16700   2 ;    C10-   C11-   C12-   C13
    11     12     13     18      9   180.00  15.16700   2 ;    C10-   C11-   C12-    O2
    12     11     10     15      9   180.00  15.16700   2 ;    C11-   C10-    C9-   C14
    12     13     14     15      9   180.00  15.16700   2 ;    C11-   C12-   C13-   C14
    12     13     14     29      9   180.00  15.16700   2 ;    C11-   C12-   C13-   HC5
    12     13     18     21      9   180.00   3.57732   2 ;    C11-   C12-    O2-     H
    13     12     11     27      9   180.00  15.16700   2 ;    C12-   C11-   C10-   HC3
    13     14     15     30      9   180.00  15.16700   2 ;    C12-   C13-   C14-   HC6
    14     13     12     28      9   180.00  15.16700   2 ;    C13-   C12-   C11-   HC4
    14     13     18     21      9   180.00   3.57732   2 ;    C13-   C12-    O2-     H
    15     10     11     27      9   180.00  15.16700   2 ;    C14-    C9-   C10-   HC3
    15     14     13     18      9   180.00  15.16700   2 ;    C14-   C13-   C12-    O2
    16      3      2     24      9   180.00  12.02900   2 ;      O-    C2-    C1-    HC
    17      1      2      3      9   180.00  16.73600   2 ;     O1-     C-    C1-    C2
    17      1      2     24      9   180.00  16.73600   2 ;     O1-     C-    C1-    HC
    17      1     10     11      9   180.00   2.92880   2 ;     O1-     C-    C9-   C10
    17      1     10     15      9   180.00   2.92880   2 ;     O1-     C-    C9-   C14
    17      9      8     26      9   180.00  15.16700   2 ;     O1-    C8-    C7-   HC2
    18     13     12     28      9   180.00  15.16700   2 ;     O2-   C12-   C11-   HC4
    18     13     14     29      9   180.00  15.16700   2 ;     O2-   C12-   C13-   HC5
    19      5      6     25      9   180.00  15.16700   2 ;     O3-    C4-    C5-   HC1
    20      7      6     25      9   180.00  15.16700   2 ;     O4-    C6-    C5-   HC1
    20      7      8     26      9   180.00  15.16700   2 ;     O4-    C6-    C7-   HC2
    27     11     12     28      9   180.00  15.16700   2 ;    HC3-   C10-   C11-   HC4
    29     14     15     30      9   180.00  15.16700   2 ;    HC5-   C13-   C14-   HC6

[ dihedrals ] ; impropers
; treated as propers in GROMACS to use correct AMBER analytical function
;    i      j      k      l   func   phase     kd      pn
     1     10     15     11      4   180.00   4.60240   2 ;      C-    C9-   C14-   C10
     3      1      2     24      4   180.00   4.60240   2 ;     C2-     C-    C1-    HC
     3      5      4      9      4   180.00   4.60240   2 ;     C2-    C4-    C3-    C8
     4      2      3     16      4   180.00  43.93200   2 ;     C3-    C1-    C2-     O
     4      6      5     19      4   180.00   4.60240   2 ;     C3-    C5-    C4-    O3
     4      8      9     17      4   180.00   4.60240   2 ;     C3-    C7-    C8-    O1
     5      7      6     25      4   180.00   4.60240   2 ;     C4-    C6-    C5-   HC1
     6      8      7     20      4   180.00   4.60240   2 ;     C5-    C7-    C6-    O4
     7      9      8     26      4   180.00   4.60240   2 ;     C6-    C8-    C7-   HC2
    10     12     11     27      4   180.00   4.60240   2 ;     C9-   C11-   C10-   HC3
    10     14     15     30      4   180.00   4.60240   2 ;     C9-   C13-   C14-   HC6
    11     13     12     28      4   180.00   4.60240   2 ;    C10-   C12-   C11-   HC4
    12     14     13     18      4   180.00   4.60240   2 ;    C11-   C13-   C12-    O2
    13     15     14     29      4   180.00   4.60240   2 ;    C12-   C14-   C13-   HC5
    17      1      2     10      4   180.00   4.60240   2 ;     O1-     C-    C1-    C9
