LIG_GMX.gro created by acpype (v: 2023.10.27) on Wed Aug  5 13:59:53 2026
 38
    1  LIG    C    1   0.981   1.129   1.296
    1  LIG   C1    2   0.877   1.147   1.184
    1  LIG   C2    3   0.810   1.286   1.197
    1  LIG   C3    4   0.703   1.310   1.088
    1  LIG   C4    5   0.603   1.196   1.099
    1  LIG   C5    6   0.477   1.184   1.022
    1  LIG   C6    7   0.402   1.282   0.972
    1  LIG   C7    8   0.450   1.042   1.020
    1  LIG   C8    9   0.667   1.056   1.070
    1  LIG   C9   10   0.771   1.028   1.182
    1  LIG  C10   11   0.835   0.890   1.155
    1  LIG  C11   12   0.922   0.893   1.029
    1  LIG  C12   13   0.855   0.962   0.909
    1  LIG  C13   14   0.736   1.051   0.930
    1  LIG  C14   15   0.940   0.996   0.787
    1  LIG    O   16   0.347   0.989   0.979
    1  LIG   O1   17   0.556   0.972   1.064
    1  LIG   O2   18   0.728   0.916   0.881
    1  LIG   HC   19   0.931   1.145   1.089
    1  LIG  HC2   20   0.887   1.363   1.188
    1  LIG  HC3   21   0.762   1.294   1.295
    1  LIG  HC4   22   0.750   1.310   0.989
    1  LIG  HC5   23   0.653   1.405   1.105
    1  LIG  HC1   24   0.574   1.193   1.204
    1  LIG  HC6   25   0.720   1.026   1.278
    1  LIG  HC7   26   0.896   0.862   1.241
    1  LIG  HC8   27   0.755   0.816   1.142
    1  LIG  HC9   28   0.946   0.790   1.001
    1  LIG HC10   29   1.015   0.945   1.052
    1  LIG HC11   30   0.719   1.133   0.860
    1  LIG HC12   31   0.433   1.385   0.983
    1  LIG HC13   32   0.310   1.259   0.920
    1  LIG HC14   33   1.028   1.031   1.287
    1  LIG HC15   34   1.057   1.207   1.288
    1  LIG HC16   35   0.932   1.137   1.393
    1  LIG HC17   36   1.023   0.926   0.780
    1  LIG HC18   37   0.978   1.097   0.796
    1  LIG HC19   38   0.879   0.988   0.697
   14.93400    12.29800    13.92600
