; LIG_GMX.itp created by acpype (v: 2023.10.27) on Wed Aug  5 13:59:53 2026

[ atomtypes ]
;name   bond_type     mass     charge   ptype   sigma         epsilon       Amb
 c3       c3          0.00000  0.00000   A     3.39771e-01   4.51035e-01 ; 1.91  0.1078
 c6       c6          0.00000  0.00000   A     3.39771e-01   4.51035e-01 ; 1.91  0.1078
 c5       c5          0.00000  0.00000   A     3.39771e-01   4.51035e-01 ; 1.91  0.1078
 ce       ce          0.00000  0.00000   A     3.31521e-01   4.13379e-01 ; 1.86  0.0988
 c2       c2          0.00000  0.00000   A     3.31521e-01   4.13379e-01 ; 1.86  0.0988
 c        c           0.00000  0.00000   A     3.31521e-01   4.13379e-01 ; 1.86  0.0988
 cx       cx          0.00000  0.00000   A     3.39771e-01   4.51035e-01 ; 1.91  0.1078
 o        o           0.00000  0.00000   A     3.04812e-01   6.12119e-01 ; 1.71  0.1463
 os       os          0.00000  0.00000   A     3.15610e-01   3.03758e-01 ; 1.77  0.0726
 op       op          0.00000  0.00000   A     3.15610e-01   3.03758e-01 ; 1.77  0.0726
 hc       hc          0.00000  0.00000   A     2.60018e-01   8.70272e-02 ; 1.46  0.0208
 h1       h1          0.00000  0.00000   A     2.42200e-01   8.70272e-02 ; 1.36  0.0208
 ha       ha          0.00000  0.00000   A     2.62548e-01   6.73624e-02 ; 1.47  0.0161

[ moleculetype ]
;name            nrexcl
 LIG              3

[ atoms ]
;   nr  type  resi  res  atom  cgnr     charge      mass       ; qtot   bond_type
     1   c3     1   LIG     C    1    -0.091100     12.01000 ; qtot -0.091
     2   c6     1   LIG    C1    2    -0.065700     12.01000 ; qtot -0.157
     3   c6     1   LIG    C2    3    -0.077400     12.01000 ; qtot -0.234
     4   c6     1   LIG    C3    4    -0.059400     12.01000 ; qtot -0.294
     5   c5     1   LIG    C4    5    -0.058500     12.01000 ; qtot -0.352
     6   ce     1   LIG    C5    6    -0.192400     12.01000 ; qtot -0.544
     7   c2     1   LIG    C6    7    -0.127000     12.01000 ; qtot -0.671
     8    c     1   LIG    C7    8     0.715799     12.01000 ; qtot 0.044
     9   c5     1   LIG    C8    9     0.157800     12.01000 ; qtot 0.202
    10   c6     1   LIG    C9   10    -0.045700     12.01000 ; qtot 0.156
    11   c6     1   LIG   C10   11    -0.078400     12.01000 ; qtot 0.078
    12   c6     1   LIG   C11   12    -0.062400     12.01000 ; qtot 0.016
    13   cx     1   LIG   C12   13     0.085800     12.01000 ; qtot 0.101
    14   cx     1   LIG   C13   14     0.050100     12.01000 ; qtot 0.151
    15   c3     1   LIG   C14   15    -0.086100     12.01000 ; qtot 0.065
    16    o     1   LIG     O   16    -0.553500     16.00000 ; qtot -0.488
    17   os     1   LIG    O1   17    -0.389900     16.00000 ; qtot -0.878
    18   op     1   LIG    O2   18    -0.369600     16.00000 ; qtot -1.248
    19   hc     1   LIG    HC   19     0.054700      1.00800 ; qtot -1.193
    20   hc     1   LIG   HC2   20     0.045200      1.00800 ; qtot -1.148
    21   hc     1   LIG   HC3   21     0.045200      1.00800 ; qtot -1.103
    22   hc     1   LIG   HC4   22     0.050200      1.00800 ; qtot -1.052
    23   hc     1   LIG   HC5   23     0.050200      1.00800 ; qtot -1.002
    24   hc     1   LIG   HC1   24     0.076700      1.00800 ; qtot -0.925
    25   hc     1   LIG   HC6   25     0.067700      1.00800 ; qtot -0.858
    26   hc     1   LIG   HC7   26     0.061200      1.00800 ; qtot -0.797
    27   hc     1   LIG   HC8   27     0.061200      1.00800 ; qtot -0.735
    28   hc     1   LIG   HC9   28     0.056200      1.00800 ; qtot -0.679
    29   hc     1   LIG  HC10   29     0.056200      1.00800 ; qtot -0.623
    30   h1     1   LIG  HC11   30     0.093700      1.00800 ; qtot -0.529
    31   ha     1   LIG  HC12   31     0.132500      1.00800 ; qtot -0.397
    32   ha     1   LIG  HC13   32     0.132500      1.00800 ; qtot -0.264
    33   hc     1   LIG  HC14   33     0.037700      1.00800 ; qtot -0.227
    34   hc     1   LIG  HC15   34     0.037700      1.00800 ; qtot -0.189
    35   hc     1   LIG  HC16   35     0.037700      1.00800 ; qtot -0.151
    36   hc     1   LIG  HC17   36     0.050367      1.00800 ; qtot -0.101
    37   hc     1   LIG  HC18   37     0.050367      1.00800 ; qtot -0.050
    38   hc     1   LIG  HC19   38     0.050367      1.00800 ; qtot 0.000

[ bonds ]
;   ai     aj funct   r             k
     1      2   1    1.5428e-01    1.8728e+05 ;      C - C1    
     1     33   1    1.0962e-01    2.8891e+05 ;      C - HC14  
     1     34   1    1.0962e-01    2.8891e+05 ;      C - HC15  
     1     35   1    1.0962e-01    2.8891e+05 ;      C - HC16  
     2      3   1    1.5384e-01    1.8979e+05 ;     C1 - C2    
     2     10   1    1.5384e-01    1.8979e+05 ;     C1 - C9    
     2     19   1    1.0979e-01    2.8681e+05 ;     C1 - HC    
     3      4   1    1.5384e-01    1.8979e+05 ;     C2 - C3    
     3     20   1    1.0979e-01    2.8681e+05 ;     C2 - HC2   
     3     21   1    1.0979e-01    2.8681e+05 ;     C2 - HC3   
     4      5   1    1.5389e-01    1.8951e+05 ;     C3 - C4    
     4     22   1    1.0979e-01    2.8681e+05 ;     C3 - HC4   
     4     23   1    1.0979e-01    2.8681e+05 ;     C3 - HC5   
     5      6   1    1.5177e-01    2.0222e+05 ;     C4 - C5    
     5      9   1    1.5483e-01    1.8418e+05 ;     C4 - C8    
     5     24   1    1.0954e-01    2.8989e+05 ;     C4 - HC1   
     6      7   1    1.3457e-01    3.5505e+05 ;     C5 - C6    
     6      8   1    1.4848e-01    2.2406e+05 ;     C5 - C7    
     7     31   1    1.0882e-01    2.9898e+05 ;     C6 - HC12  
     7     32   1    1.0882e-01    2.9898e+05 ;     C6 - HC13  
     8     16   1    1.2190e-01    4.9421e+05 ;     C7 - O     
     8     17   1    1.3621e-01    2.9398e+05 ;     C7 - O1    
     9     10   1    1.5389e-01    1.8951e+05 ;     C8 - C9    
     9     14   1    1.5312e-01    1.9401e+05 ;     C8 - C13   
     9     17   1    1.4346e-01    2.3063e+05 ;     C8 - O1    
    10     11   1    1.5384e-01    1.8979e+05 ;     C9 - C10   
    10     25   1    1.0979e-01    2.8681e+05 ;     C9 - HC6   
    11     12   1    1.5384e-01    1.8979e+05 ;    C10 - C11   
    11     26   1    1.0979e-01    2.8681e+05 ;    C10 - HC7   
    11     27   1    1.0979e-01    2.8681e+05 ;    C10 - HC8   
    12     13   1    1.5278e-01    1.9604e+05 ;    C11 - C12   
    12     28   1    1.0979e-01    2.8681e+05 ;    C11 - HC9   
    12     29   1    1.0979e-01    2.8681e+05 ;    C11 - HC10  
    13     14   1    1.5082e-01    2.0825e+05 ;    C12 - C13   
    13     15   1    1.5174e-01    2.0241e+05 ;    C12 - C14   
    13     18   1    1.4368e-01    2.2898e+05 ;    C12 - O2    
    14     18   1    1.4368e-01    2.2898e+05 ;    C13 - O2    
    14     30   1    1.0888e-01    2.9820e+05 ;    C13 - HC11  
    15     36   1    1.0962e-01    2.8891e+05 ;    C14 - HC17  
    15     37   1    1.0962e-01    2.8891e+05 ;    C14 - HC18  
    15     38   1    1.0962e-01    2.8891e+05 ;    C14 - HC19  

[ pairs ]
;   ai     aj    funct
     1      4      1 ;      C - C3    
     1      9      1 ;      C - C8    
     1     11      1 ;      C - C10   
     1     20      1 ;      C - HC2   
     1     21      1 ;      C - HC3   
     1     25      1 ;      C - HC6   
     2      5      1 ;     C1 - C4    
     2     12      1 ;     C1 - C11   
     2     14      1 ;     C1 - C13   
     2     17      1 ;     C1 - O1    
     2     22      1 ;     C1 - HC4   
     2     23      1 ;     C1 - HC5   
     2     26      1 ;     C1 - HC7   
     2     27      1 ;     C1 - HC8   
     3      6      1 ;     C2 - C5    
     3      9      1 ;     C2 - C8    
     3     11      1 ;     C2 - C10   
     3     24      1 ;     C2 - HC1   
     3     25      1 ;     C2 - HC6   
     4      7      1 ;     C3 - C6    
     4      8      1 ;     C3 - C7    
     4     10      1 ;     C3 - C9    
     4     14      1 ;     C3 - C13   
     4     17      1 ;     C3 - O1    
     4     19      1 ;     C3 - HC    
     5     11      1 ;     C4 - C10   
     5     13      1 ;     C4 - C12   
     5     16      1 ;     C4 - O     
     5     18      1 ;     C4 - O2    
     5     20      1 ;     C4 - HC2   
     5     21      1 ;     C4 - HC3   
     5     25      1 ;     C4 - HC6   
     5     30      1 ;     C4 - HC11  
     5     31      1 ;     C4 - HC12  
     5     32      1 ;     C4 - HC13  
     6     10      1 ;     C5 - C9    
     6     14      1 ;     C5 - C13   
     6     22      1 ;     C5 - HC4   
     6     23      1 ;     C5 - HC5   
     7      9      1 ;     C6 - C8    
     7     16      1 ;     C6 - O     
     7     17      1 ;     C6 - O1    
     7     24      1 ;     C6 - HC1   
     8     10      1 ;     C7 - C9    
     8     14      1 ;     C7 - C13   
     8     24      1 ;     C7 - HC1   
     8     31      1 ;     C7 - HC12  
     8     32      1 ;     C7 - HC13  
     9     12      1 ;     C8 - C11   
     9     15      1 ;     C8 - C14   
     9     16      1 ;     C8 - O     
     9     19      1 ;     C8 - HC    
     9     22      1 ;     C8 - HC4   
     9     23      1 ;     C8 - HC5   
     9     26      1 ;     C8 - HC7   
     9     27      1 ;     C8 - HC8   
    10     13      1 ;     C9 - C12   
    10     18      1 ;     C9 - O2    
    10     20      1 ;     C9 - HC2   
    10     21      1 ;     C9 - HC3   
    10     24      1 ;     C9 - HC1   
    10     28      1 ;     C9 - HC9   
    10     29      1 ;     C9 - HC10  
    10     30      1 ;     C9 - HC11  
    11     14      1 ;    C10 - C13   
    11     15      1 ;    C10 - C14   
    11     17      1 ;    C10 - O1    
    11     18      1 ;    C10 - O2    
    11     19      1 ;    C10 - HC    
    12     25      1 ;    C11 - HC6   
    12     30      1 ;    C11 - HC11  
    12     36      1 ;    C11 - HC17  
    12     37      1 ;    C11 - HC18  
    12     38      1 ;    C11 - HC19  
    13     17      1 ;    C12 - O1    
    13     26      1 ;    C12 - HC7   
    13     27      1 ;    C12 - HC8   
    14     24      1 ;    C13 - HC1   
    14     25      1 ;    C13 - HC6   
    14     28      1 ;    C13 - HC9   
    14     29      1 ;    C13 - HC10  
    14     36      1 ;    C13 - HC17  
    14     37      1 ;    C13 - HC18  
    14     38      1 ;    C13 - HC19  
    15     28      1 ;    C14 - HC9   
    15     29      1 ;    C14 - HC10  
    15     30      1 ;    C14 - HC11  
    17     18      1 ;     O1 - O2    
    17     24      1 ;     O1 - HC1   
    17     25      1 ;     O1 - HC6   
    17     30      1 ;     O1 - HC11  
    18     28      1 ;     O2 - HC9   
    18     29      1 ;     O2 - HC10  
    18     36      1 ;     O2 - HC17  
    18     37      1 ;     O2 - HC18  
    18     38      1 ;     O2 - HC19  
    19     20      1 ;     HC - HC2   
    19     21      1 ;     HC - HC3   
    19     25      1 ;     HC - HC6   
    20     22      1 ;    HC2 - HC4   
    20     23      1 ;    HC2 - HC5   
    21     22      1 ;    HC3 - HC4   
    21     23      1 ;    HC3 - HC5   
    22     24      1 ;    HC4 - HC1   
    23     24      1 ;    HC5 - HC1   
    25     26      1 ;    HC6 - HC7   
    25     27      1 ;    HC6 - HC8   
    26     28      1 ;    HC7 - HC9   
    26     29      1 ;    HC7 - HC10  
    27     28      1 ;    HC8 - HC9   
    27     29      1 ;    HC8 - HC10  
    33      3      1 ;   HC14 - C2    
    33     10      1 ;   HC14 - C9    
    33     19      1 ;   HC14 - HC    
    34      3      1 ;   HC15 - C2    
    34     10      1 ;   HC15 - C9    
    34     19      1 ;   HC15 - HC    
    35      3      1 ;   HC16 - C2    
    35     10      1 ;   HC16 - C9    
    35     19      1 ;   HC16 - HC    

[ angles ]
;   ai     aj     ak    funct   theta         cth
     1      2      3      1    1.1143e+02    5.0200e+02 ;      C - C1     - C2    
     1      2     10      1    1.1143e+02    5.0200e+02 ;      C - C1     - C9    
     1      2     19      1    1.0746e+02    3.6418e+02 ;      C - C1     - HC    
     2      1     33      1    1.1063e+02    3.5890e+02 ;     C1 - C      - HC14  
     2      1     34      1    1.1063e+02    3.5890e+02 ;     C1 - C      - HC15  
     2      1     35      1    1.1063e+02    3.5890e+02 ;     C1 - C      - HC16  
     2      3      4      1    1.1106e+02    5.0359e+02 ;     C1 - C2     - C3    
     2      3     20      1    1.0945e+02    3.6175e+02 ;     C1 - C2     - HC2   
     2      3     21      1    1.0945e+02    3.6175e+02 ;     C1 - C2     - HC3   
     2     10      9      1    1.1104e+02    5.0350e+02 ;     C1 - C9     - C8    
     2     10     11      1    1.1106e+02    5.0359e+02 ;     C1 - C9     - C10   
     2     10     25      1    1.0945e+02    3.6175e+02 ;     C1 - C9     - HC6   
     3      2     10      1    1.1106e+02    5.0359e+02 ;     C2 - C1     - C9    
     3      2     19      1    1.0945e+02    3.6175e+02 ;     C2 - C1     - HC    
     3      4      5      1    1.1104e+02    5.0350e+02 ;     C2 - C3     - C4    
     3      4     22      1    1.0945e+02    3.6175e+02 ;     C2 - C3     - HC4   
     3      4     23      1    1.0945e+02    3.6175e+02 ;     C2 - C3     - HC5   
     4      3     20      1    1.0945e+02    3.6175e+02 ;     C3 - C2     - HC2   
     4      3     21      1    1.0945e+02    3.6175e+02 ;     C3 - C2     - HC3   
     4      5      6      1    1.1184e+02    5.0509e+02 ;     C3 - C4     - C5    
     4      5      9      1    1.1375e+02    4.9589e+02 ;     C3 - C4     - C8    
     4      5     24      1    1.0642e+02    3.6685e+02 ;     C3 - C4     - HC1   
     5      4     22      1    1.0934e+02    3.6183e+02 ;     C4 - C3     - HC4   
     5      4     23      1    1.0934e+02    3.6183e+02 ;     C4 - C3     - HC5   
     5      6      7      1    1.2806e+02    5.0024e+02 ;     C4 - C5     - C6    
     5      6      8      1    1.0833e+02    5.2233e+02 ;     C4 - C5     - C7    
     5      9     10      1    1.1375e+02    4.9589e+02 ;     C4 - C8     - C9    
     5      9     14      1    1.0367e+02    5.2074e+02 ;     C4 - C8     - C13   
     5      9     17      1    1.0614e+02    6.4793e+02 ;     C4 - C8     - O1    
     6      5      9      1    1.0259e+02    5.2568e+02 ;     C5 - C4     - C8    
     6      5     24      1    1.1090e+02    3.6392e+02 ;     C5 - C4     - HC1   
     6      7     31      1    1.2049e+02    3.8618e+02 ;     C5 - C6     - HC12  
     6      7     32      1    1.2049e+02    3.8618e+02 ;     C5 - C6     - HC13  
     6      8     16      1    1.2324e+02    6.5262e+02 ;     C5 - C7     - O     
     6      8     17      1    1.1055e+02    6.6467e+02 ;     C5 - C7     - O1    
     7      6      8      1    1.2200e+02    5.1974e+02 ;     C6 - C5     - C7    
     8     17      9      1    1.1093e+02    7.6249e+02 ;     C7 - O1     - C8    
     9      5     24      1    1.1117e+02    3.5690e+02 ;     C8 - C4     - HC1   
     9     10     11      1    1.1104e+02    5.0350e+02 ;     C8 - C9     - C10   
     9     10     25      1    1.0934e+02    3.6183e+02 ;     C8 - C9     - HC6   
     9     14     13      1    1.1200e+02    5.0760e+02 ;     C8 - C13    - C12   
     9     14     18      1    1.1515e+02    6.2576e+02 ;     C8 - C13    - O2    
     9     14     30      1    1.2044e+02    3.4660e+02 ;     C8 - C13    - HC11  
    10      2     19      1    1.0945e+02    3.6175e+02 ;     C9 - C1     - HC    
    10      9     14      1    1.1053e+02    5.0585e+02 ;     C9 - C8     - C13   
    10      9     17      1    1.0927e+02    6.4091e+02 ;     C9 - C8     - O1    
    10     11     12      1    1.1106e+02    5.0359e+02 ;     C9 - C10    - C11   
    10     11     26      1    1.0945e+02    3.6175e+02 ;     C9 - C10    - HC7   
    10     11     27      1    1.0945e+02    3.6175e+02 ;     C9 - C10    - HC8   
    11     10     25      1    1.0945e+02    3.6175e+02 ;    C10 - C9     - HC6   
    11     12     13      1    1.1146e+02    5.0442e+02 ;    C10 - C11    - C12   
    11     12     28      1    1.0945e+02    3.6175e+02 ;    C10 - C11    - HC9   
    11     12     29      1    1.0945e+02    3.6175e+02 ;    C10 - C11    - HC10  
    12     11     26      1    1.0945e+02    3.6175e+02 ;    C11 - C10    - HC7   
    12     11     27      1    1.0945e+02    3.6175e+02 ;    C11 - C10    - HC8   
    12     13     14      1    1.1982e+02    4.9129e+02 ;    C11 - C12    - C13   
    12     13     15      1    1.1576e+02    4.9831e+02 ;    C11 - C12    - C14   
    12     13     18      1    1.1566e+02    6.2517e+02 ;    C11 - C12    - O2    
    13     12     28      1    1.0884e+02    3.6501e+02 ;    C12 - C11    - HC9   
    13     12     29      1    1.0884e+02    3.6501e+02 ;    C12 - C11    - HC10  
    13     14     18      1    5.9100e+01    8.8107e+02 ;    C12 - C13    - O2    
    13     14     30      1    1.1869e+02    3.5397e+02 ;    C12 - C13    - HC11  
    13     15     36      1    1.1034e+02    3.6484e+02 ;    C12 - C14    - HC17  
    13     15     37      1    1.1034e+02    3.6484e+02 ;    C12 - C14    - HC18  
    13     15     38      1    1.1034e+02    3.6484e+02 ;    C12 - C14    - HC19  
    13     18     14      1    6.1760e+01    9.9588e+02 ;    C12 - O2     - C13   
    14      9     17      1    1.0731e+02    6.4860e+02 ;    C13 - C8     - O1    
    14     13     15      1    1.2076e+02    4.9112e+02 ;    C13 - C12    - C14   
    14     13     18      1    5.9100e+01    8.8107e+02 ;    C13 - C12    - O2    
    15     13     18      1    1.1602e+02    6.2668e+02 ;    C14 - C12    - O2    
    16      8     17      1    1.2320e+02    8.4734e+02 ;      O - C7     - O1    
    18     14     30      1    1.1493e+02    4.5882e+02 ;     O2 - C13    - HC11  
    20      3     21      1    1.0662e+02    3.0066e+02 ;    HC2 - C2     - HC3   
    22      4     23      1    1.0662e+02    3.0066e+02 ;    HC4 - C3     - HC5   
    26     11     27      1    1.0662e+02    3.0066e+02 ;    HC7 - C10    - HC8   
    28     12     29      1    1.0662e+02    3.0066e+02 ;    HC9 - C11    - HC10  
    31      7     32      1    1.1666e+02    2.9003e+02 ;   HC12 - C6     - HC13  
    33      1     34      1    1.0773e+02    2.9957e+02 ;   HC14 - C      - HC15  
    33      1     35      1    1.0773e+02    2.9957e+02 ;   HC14 - C      - HC16  
    34      1     35      1    1.0773e+02    2.9957e+02 ;   HC15 - C      - HC16  
    36     15     37      1    1.0773e+02    2.9957e+02 ;   HC17 - C14    - HC18  
    36     15     38      1    1.0773e+02    2.9957e+02 ;   HC17 - C14    - HC19  
    37     15     38      1    1.0773e+02    2.9957e+02 ;   HC18 - C14    - HC19  

[ dihedrals ] ; propers
; for gromacs 4.5 or higher, using funct 9
;    i      j      k      l   func   phase     kd      pn
     1      2      3      4      9     0.00   2.17568   3 ;      C-    C1-    C2-    C3
     1      2      3     20      9     0.00   0.54392   3 ;      C-    C1-    C2-   HC2
     1      2      3     21      9     0.00   0.54392   3 ;      C-    C1-    C2-   HC3
     1      2     10      9      9     0.00   2.17568   3 ;      C-    C1-    C9-    C8
     1      2     10     11      9     0.00   2.17568   3 ;      C-    C1-    C9-   C10
     1      2     10     25      9     0.00   0.54392   3 ;      C-    C1-    C9-   HC6
     2      3      4      5      9     0.00   2.17568   3 ;     C1-    C2-    C3-    C4
     2      3      4     22      9     0.00   0.54392   3 ;     C1-    C2-    C3-   HC4
     2      3      4     23      9     0.00   0.54392   3 ;     C1-    C2-    C3-   HC5
     2     10      9      5      9     0.00   2.17568   3 ;     C1-    C9-    C8-    C4
     2     10      9     14      9     0.00   0.65084   3 ;     C1-    C9-    C8-   C13
     2     10      9     17      9     0.00   0.65084   3 ;     C1-    C9-    C8-    O1
     2     10     11     12      9     0.00   2.17568   3 ;     C1-    C9-   C10-   C11
     2     10     11     26      9     0.00   0.54392   3 ;     C1-    C9-   C10-   HC7
     2     10     11     27      9     0.00   0.54392   3 ;     C1-    C9-   C10-   HC8
     3      2     10      9      9     0.00   2.17568   3 ;     C2-    C1-    C9-    C8
     3      2     10     11      9     0.00   2.17568   3 ;     C2-    C1-    C9-   C10
     3      2     10     25      9     0.00   0.54392   3 ;     C2-    C1-    C9-   HC6
     3      4      5      6      9     0.00   0.65084   3 ;     C2-    C3-    C4-    C5
     3      4      5      9      9     0.00   2.17568   3 ;     C2-    C3-    C4-    C8
     3      4      5     24      9     0.00   0.54392   3 ;     C2-    C3-    C4-   HC1
     4      3      2     10      9     0.00   2.17568   3 ;     C3-    C2-    C1-    C9
     4      3      2     19      9     0.00   0.54392   3 ;     C3-    C2-    C1-    HC
     4      5      6      7      9     0.00   1.55645   3 ;     C3-    C4-    C5-    C6
     4      5      6      8      9     0.00   0.00000   0 ;     C3-    C4-    C5-    C7
     4      5      9     10      9     0.00   2.17568   3 ;     C3-    C4-    C8-    C9
     4      5      9     14      9     0.00   0.65084   3 ;     C3-    C4-    C8-   C13
     4      5      9     17      9     0.00   0.65084   3 ;     C3-    C4-    C8-    O1
     5      4      3     20      9     0.00   0.54392   3 ;     C4-    C3-    C2-   HC2
     5      4      3     21      9     0.00   0.54392   3 ;     C4-    C3-    C2-   HC3
     5      6      7     31      9   180.00  27.82360   2 ;     C4-    C5-    C6-  HC12
     5      6      7     32      9   180.00  27.82360   2 ;     C4-    C5-    C6-  HC13
     5      6      8     16      9   180.00   9.10020   2 ;     C4-    C5-    C7-     O
     5      6      8     17      9   180.00   9.10020   2 ;     C4-    C5-    C7-    O1
     5      9     10     11      9     0.00   2.17568   3 ;     C4-    C8-    C9-   C10
     5      9     10     25      9     0.00   0.54392   3 ;     C4-    C8-    C9-   HC6
     5      9     14     13      9     0.00   2.17568   3 ;     C4-    C8-   C13-   C12
     5      9     14     18      9     0.00   0.65084   3 ;     C4-    C8-   C13-    O2
     5      9     14     30      9     0.00   0.54392   3 ;     C4-    C8-   C13-  HC11
     5      9     17      8      9     0.00   1.60247   3 ;     C4-    C8-    O1-    C7
     5      9     17      8      9   180.00   3.34720   1 ;     C4-    C8-    O1-    C7
     6      5      4     22      9     0.00   0.65084   3 ;     C5-    C4-    C3-   HC4
     6      5      4     23      9     0.00   0.65084   3 ;     C5-    C4-    C3-   HC5
     6      5      9     10      9     0.00   0.65084   3 ;     C5-    C4-    C8-    C9
     6      5      9     14      9     0.00   0.65084   3 ;     C5-    C4-    C8-   C13
     6      5      9     17      9     0.00   0.65084   3 ;     C5-    C4-    C8-    O1
     6      8     17      9      9   180.00  11.29680   2 ;     C5-    C7-    O1-    C8
     7      6      5      9      9     0.00   1.55645   3 ;     C6-    C5-    C4-    C8
     7      6      5     24      9   180.00   1.08784   3 ;     C6-    C5-    C4-   HC1
     7      6      8     16      9   180.00   9.10020   2 ;     C6-    C5-    C7-     O
     7      6      8     17      9   180.00   9.10020   2 ;     C6-    C5-    C7-    O1
     8      6      5      9      9     0.00   0.00000   0 ;     C7-    C5-    C4-    C8
     8      6      5     24      9   180.00   1.08784   3 ;     C7-    C5-    C4-   HC1
     8      6      7     31      9   180.00  27.82360   2 ;     C7-    C5-    C6-  HC12
     8      6      7     32      9   180.00  27.82360   2 ;     C7-    C5-    C6-  HC13
     8     17      9     10      9     0.00   1.60247   3 ;     C7-    O1-    C8-    C9
     8     17      9     10      9   180.00   3.34720   1 ;     C7-    O1-    C8-    C9
     8     17      9     14      9     0.00   1.60387   3 ;     C7-    O1-    C8-   C13
     9      5      4     22      9     0.00   0.54392   3 ;     C8-    C4-    C3-   HC4
     9      5      4     23      9     0.00   0.54392   3 ;     C8-    C4-    C3-   HC5
     9     10      2     19      9     0.00   0.54392   3 ;     C8-    C9-    C1-    HC
     9     10     11     12      9     0.00   2.17568   3 ;     C8-    C9-   C10-   C11
     9     10     11     26      9     0.00   0.54392   3 ;     C8-    C9-   C10-   HC7
     9     10     11     27      9     0.00   0.54392   3 ;     C8-    C9-   C10-   HC8
     9     14     13     12      9     0.00   0.65084   3 ;     C8-   C13-   C12-   C11
     9     14     13     15      9     0.00   0.65084   3 ;     C8-   C13-   C12-   C14
     9     14     13     18      9     0.00   0.65084   3 ;     C8-   C13-   C12-    O2
     9     14     18     13      9     0.00   0.33472   2 ;     C8-   C13-    O2-   C12
     9     14     18     13      9     0.00   3.13800   3 ;     C8-   C13-    O2-   C12
     9     14     18     13      9   180.00   3.68192   1 ;     C8-   C13-    O2-   C12
     9     17      8     16      9   180.00   5.85760   1 ;     C8-    O1-    C7-     O
     9     17      8     16      9   180.00  11.29680   2 ;     C8-    O1-    C7-     O
    10      2      3     20      9     0.00   0.54392   3 ;     C9-    C1-    C2-   HC2
    10      2      3     21      9     0.00   0.54392   3 ;     C9-    C1-    C2-   HC3
    10      9      5     24      9     0.00   0.54392   3 ;     C9-    C8-    C4-   HC1
    10      9     14     13      9     0.00   2.17568   3 ;     C9-    C8-   C13-   C12
    10      9     14     18      9     0.00   0.65084   3 ;     C9-    C8-   C13-    O2
    10      9     14     30      9     0.00   0.54392   3 ;     C9-    C8-   C13-  HC11
    10     11     12     13      9     0.00   0.65084   3 ;     C9-   C10-   C11-   C12
    10     11     12     28      9     0.00   0.54392   3 ;     C9-   C10-   C11-   HC9
    10     11     12     29      9     0.00   0.54392   3 ;     C9-   C10-   C11-  HC10
    11     10      2     19      9     0.00   0.54392   3 ;    C10-    C9-    C1-    HC
    11     10      9     14      9     0.00   0.65084   3 ;    C10-    C9-    C8-   C13
    11     10      9     17      9     0.00   0.65084   3 ;    C10-    C9-    C8-    O1
    11     12     13     14      9     0.00   2.17568   3 ;    C10-   C11-   C12-   C13
    11     12     13     15      9     0.00   2.17568   3 ;    C10-   C11-   C12-   C14
    11     12     13     18      9     0.00   0.65084   3 ;    C10-   C11-   C12-    O2
    12     11     10     25      9     0.00   0.54392   3 ;    C11-   C10-    C9-   HC6
    12     13     14     18      9     0.00   0.65084   3 ;    C11-   C12-   C13-    O2
    12     13     14     30      9     0.00   0.65084   3 ;    C11-   C12-   C13-  HC11
    12     13     15     36      9     0.00   0.54392   3 ;    C11-   C12-   C14-  HC17
    12     13     15     37      9     0.00   0.54392   3 ;    C11-   C12-   C14-  HC18
    12     13     15     38      9     0.00   0.54392   3 ;    C11-   C12-   C14-  HC19
    12     13     18     14      9     0.00   0.33472   2 ;    C11-   C12-    O2-   C13
    12     13     18     14      9     0.00   3.13800   3 ;    C11-   C12-    O2-   C13
    12     13     18     14      9   180.00   3.68192   1 ;    C11-   C12-    O2-   C13
    13     12     11     26      9     0.00   0.65084   3 ;    C12-   C11-   C10-   HC7
    13     12     11     27      9     0.00   0.65084   3 ;    C12-   C11-   C10-   HC8
    13     14      9     17      9     0.00   0.75312   3 ;    C12-   C13-    C8-    O1
    13     18     14     30      9     0.00   1.41001   3 ;    C12-    O2-   C13-  HC11
    14      9      5     24      9     0.00   0.65084   3 ;    C13-    C8-    C4-   HC1
    14      9     10     25      9     0.00   0.65084   3 ;    C13-    C8-    C9-   HC6
    14     13     12     28      9     0.00   0.54392   3 ;    C13-   C12-   C11-   HC9
    14     13     12     29      9     0.00   0.54392   3 ;    C13-   C12-   C11-  HC10
    14     13     15     36      9     0.00   0.54392   3 ;    C13-   C12-   C14-  HC17
    14     13     15     37      9     0.00   0.54392   3 ;    C13-   C12-   C14-  HC18
    14     13     15     38      9     0.00   0.54392   3 ;    C13-   C12-   C14-  HC19
    14     18     13     15      9     0.00   0.33472   2 ;    C13-    O2-   C12-   C14
    14     18     13     15      9     0.00   3.13800   3 ;    C13-    O2-   C12-   C14
    14     18     13     15      9   180.00   3.68192   1 ;    C13-    O2-   C12-   C14
    15     13     12     28      9     0.00   0.54392   3 ;    C14-   C12-   C11-   HC9
    15     13     12     29      9     0.00   0.54392   3 ;    C14-   C12-   C11-  HC10
    15     13     14     18      9     0.00   0.65084   3 ;    C14-   C12-   C13-    O2
    15     13     14     30      9     0.00   0.65084   3 ;    C14-   C12-   C13-  HC11
    17      9      5     24      9     0.00   0.00000   0 ;     O1-    C8-    C4-   HC1
    17      9      5     24      9     0.00   1.04600   1 ;     O1-    C8-    C4-   HC1
    17      9     10     25      9     0.00   0.00000   0 ;     O1-    C8-    C9-   HC6
    17      9     10     25      9     0.00   1.04600   1 ;     O1-    C8-    C9-   HC6
    17      9     14     18      9     0.00   0.75312   1 ;     O1-    C8-   C13-    O2
    17      9     14     18      9     0.00   2.09200   3 ;     O1-    C8-   C13-    O2
    17      9     14     18      9     0.00   3.76560   2 ;     O1-    C8-   C13-    O2
    17      9     14     30      9     0.00   0.00000   0 ;     O1-    C8-   C13-  HC11
    17      9     14     30      9     0.00   1.04600   1 ;     O1-    C8-   C13-  HC11
    18     13     12     28      9     0.00   0.00000   0 ;     O2-   C12-   C11-   HC9
    18     13     12     28      9     0.00   1.04600   1 ;     O2-   C12-   C11-   HC9
    18     13     12     29      9     0.00   0.00000   0 ;     O2-   C12-   C11-  HC10
    18     13     12     29      9     0.00   1.04600   1 ;     O2-   C12-   C11-  HC10
    18     13     14     30      9     0.00   0.65084   3 ;     O2-   C12-   C13-  HC11
    18     13     15     36      9     0.00   0.00000   0 ;     O2-   C12-   C14-  HC17
    18     13     15     36      9     0.00   1.04600   1 ;     O2-   C12-   C14-  HC17
    18     13     15     37      9     0.00   0.00000   0 ;     O2-   C12-   C14-  HC18
    18     13     15     37      9     0.00   1.04600   1 ;     O2-   C12-   C14-  HC18
    18     13     15     38      9     0.00   0.00000   0 ;     O2-   C12-   C14-  HC19
    18     13     15     38      9     0.00   1.04600   1 ;     O2-   C12-   C14-  HC19
    19      2      3     20      9     0.00   0.50208   3 ;     HC-    C1-    C2-   HC2
    19      2      3     21      9     0.00   0.50208   3 ;     HC-    C1-    C2-   HC3
    19      2     10     25      9     0.00   0.50208   3 ;     HC-    C1-    C9-   HC6
    20      3      4     22      9     0.00   0.50208   3 ;    HC2-    C2-    C3-   HC4
    20      3      4     23      9     0.00   0.50208   3 ;    HC2-    C2-    C3-   HC5
    21      3      4     22      9     0.00   0.50208   3 ;    HC3-    C2-    C3-   HC4
    21      3      4     23      9     0.00   0.50208   3 ;    HC3-    C2-    C3-   HC5
    22      4      5     24      9     0.00   0.50208   3 ;    HC4-    C3-    C4-   HC1
    23      4      5     24      9     0.00   0.50208   3 ;    HC5-    C3-    C4-   HC1
    25     10     11     26      9     0.00   0.50208   3 ;    HC6-    C9-   C10-   HC7
    25     10     11     27      9     0.00   0.50208   3 ;    HC6-    C9-   C10-   HC8
    26     11     12     28      9     0.00   0.50208   3 ;    HC7-   C10-   C11-   HC9
    26     11     12     29      9     0.00   0.50208   3 ;    HC7-   C10-   C11-  HC10
    27     11     12     28      9     0.00   0.50208   3 ;    HC8-   C10-   C11-   HC9
    27     11     12     29      9     0.00   0.50208   3 ;    HC8-   C10-   C11-  HC10
    33      1      2      3      9     0.00   0.54392   3 ;   HC14-     C-    C1-    C2
    33      1      2     10      9     0.00   0.54392   3 ;   HC14-     C-    C1-    C9
    33      1      2     19      9     0.00   0.50208   3 ;   HC14-     C-    C1-    HC
    34      1      2      3      9     0.00   0.54392   3 ;   HC15-     C-    C1-    C2
    34      1      2     10      9     0.00   0.54392   3 ;   HC15-     C-    C1-    C9
    34      1      2     19      9     0.00   0.50208   3 ;   HC15-     C-    C1-    HC
    35      1      2      3      9     0.00   0.54392   3 ;   HC16-     C-    C1-    C2
    35      1      2     10      9     0.00   0.54392   3 ;   HC16-     C-    C1-    C9
    35      1      2     19      9     0.00   0.50208   3 ;   HC16-     C-    C1-    HC

[ dihedrals ] ; impropers
; treated as propers in GROMACS to use correct AMBER analytical function
;    i      j      k      l   func   phase     kd      pn
     6     16      8     17      4   180.00   4.60240   2 ;     C5-     O-    C7-    O1
     6     31      7     32      4   180.00   4.60240   2 ;     C5-  HC12-    C6-  HC13
     8      7      6      5      4   180.00   4.60240   2 ;     C7-    C6-    C5-    C4
