LIG_GMX.gro created by acpype (v: 2023.10.27) on Wed Aug  5 14:14:04 2026
 39
    1  LIG    C    1  13.601  19.457   0.621
    1  LIG   C1    2  13.709  19.566   0.616
    1  LIG   C2    3  13.751  19.619   0.477
    1  LIG   C3    4  13.744  19.517   0.359
    1  LIG   C4    5  13.869  19.529   0.269
    1  LIG   C5    6  13.844  19.506   0.120
    1  LIG   C6    7  13.851  19.610   0.032
    1  LIG   C7    8  13.873  19.753   0.077
    1  LIG   C8    9  13.749  19.802   0.157
    1  LIG   C9   10  13.784  19.897   0.268
    1  LIG  C10   11  13.752  19.875   0.399
    1  LIG  C11   12  13.674  19.756   0.458
    1  LIG  C12   13  13.658  19.692   0.676
    1  LIG  C13   14  13.855  20.026   0.231
    1  LIG  C14   15  13.814  19.367   0.070
    1  LIG    O   16  13.640  19.790   0.587
    1  LIG   O1   17  13.626  19.703   0.792
    1  LIG   HC   18  13.797  19.532   0.671
    1  LIG  HC1   19  13.857  19.646   0.487
    1  LIG  HC2   20  13.656  19.537   0.299
    1  LIG  HC3   21  13.738  19.416   0.399
    1  LIG  HC4   22  13.910  19.629   0.282
    1  LIG  HC5   23  13.943  19.456   0.303
    1  LIG  HC6   24  13.841  19.590  -0.074
    1  LIG  HC7   25  13.962  19.758   0.141
    1  LIG  HC8   26  13.888  19.817  -0.010
    1  LIG  HC9   27  13.681  19.852   0.088
    1  LIG HC10   28  13.699  19.715   0.199
    1  LIG HC11   29  13.784  19.950   0.469
    1  LIG HC12   30  13.584  19.739   0.400
    1  LIG HC13   31  13.561  19.451   0.723
    1  LIG HC14   32  13.520  19.483   0.553
    1  LIG HC15   33  13.644  19.362   0.593
    1  LIG HC16   34  13.800  19.370  -0.038
    1  LIG HC17   35  13.898  19.302   0.094
    1  LIG HC18   36  13.724  19.330   0.119
    1  LIG HC19   37  13.874  20.084   0.322
    1  LIG HC20   38  13.950  20.002   0.183
    1  LIG HC21   39  13.793  20.083   0.163
    8.82600    15.65000    17.32400
