; LIG_GMX.itp created by acpype (v: 2023.10.27) on Wed Aug  5 14:06:02 2026

[ atomtypes ]
;name   bond_type     mass     charge   ptype   sigma         epsilon       Amb
 c3       c3          0.00000  0.00000   A     3.39771e-01   4.51035e-01 ; 1.91  0.1078
 c5       c5          0.00000  0.00000   A     3.39771e-01   4.51035e-01 ; 1.91  0.1078
 c2       c2          0.00000  0.00000   A     3.31521e-01   4.13379e-01 ; 1.86  0.0988
 c        c           0.00000  0.00000   A     3.31521e-01   4.13379e-01 ; 1.86  0.0988
 os       os          0.00000  0.00000   A     3.15610e-01   3.03758e-01 ; 1.77  0.0726
 o        o           0.00000  0.00000   A     3.04812e-01   6.12119e-01 ; 1.71  0.1463
 hc       hc          0.00000  0.00000   A     2.60018e-01   8.70272e-02 ; 1.46  0.0208
 ha       ha          0.00000  0.00000   A     2.62548e-01   6.73624e-02 ; 1.47  0.0161
 h1       h1          0.00000  0.00000   A     2.42200e-01   8.70272e-02 ; 1.36  0.0208

[ moleculetype ]
;name            nrexcl
 LIG              3

[ atoms ]
;   nr  type  resi  res  atom  cgnr     charge      mass       ; qtot   bond_type
     1   c3     1   LIG     C    1    -0.084100     12.01000 ; qtot -0.084
     2   c5     1   LIG    C1    2    -0.150700     12.01000 ; qtot -0.235
     3   c5     1   LIG    C2    3    -0.083700     12.01000 ; qtot -0.319
     4   c3     1   LIG    C3    4    -0.070400     12.01000 ; qtot -0.389
     5   c3     1   LIG    C4    5    -0.044200     12.01000 ; qtot -0.433
     6   c2     1   LIG    C5    6    -0.116400     12.01000 ; qtot -0.549
     7   c2     1   LIG    C6    7    -0.172200     12.01000 ; qtot -0.722
     8   c3     1   LIG    C7    8    -0.043200     12.01000 ; qtot -0.765
     9   c3     1   LIG    C8    9    -0.049200     12.01000 ; qtot -0.814
    10   c2     1   LIG    C9   10    -0.082400     12.01000 ; qtot -0.897
    11   c2     1   LIG   C10   11    -0.198200     12.01000 ; qtot -1.095
    12   c5     1   LIG   C11   12     0.168300     12.01000 ; qtot -0.926
    13    c     1   LIG   C12   13     0.709600     12.01000 ; qtot -0.217
    14   c3     1   LIG   C13   14    -0.064900     12.01000 ; qtot -0.282
    15   c3     1   LIG   C14   15    -0.062900     12.01000 ; qtot -0.345
    16   os     1   LIG     O   16    -0.403900     16.00000 ; qtot -0.748
    17    o     1   LIG    O1   17    -0.572500     16.00000 ; qtot -1.321
    18   hc     1   LIG    HC   18     0.083700      1.00800 ; qtot -1.237
    19   hc     1   LIG   HC1   19     0.070700      1.00800 ; qtot -1.167
    20   hc     1   LIG   HC2   20     0.051200      1.00800 ; qtot -1.115
    21   hc     1   LIG   HC3   21     0.051200      1.00800 ; qtot -1.064
    22   hc     1   LIG   HC4   22     0.049200      1.00800 ; qtot -1.015
    23   hc     1   LIG   HC5   23     0.049200      1.00800 ; qtot -0.966
    24   ha     1   LIG   HC6   24     0.121000      1.00800 ; qtot -0.845
    25   hc     1   LIG   HC7   25     0.049200      1.00800 ; qtot -0.796
    26   hc     1   LIG   HC8   26     0.049200      1.00800 ; qtot -0.746
    27   hc     1   LIG   HC9   27     0.054200      1.00800 ; qtot -0.692
    28   hc     1   LIG  HC10   28     0.054200      1.00800 ; qtot -0.638
    29   ha     1   LIG  HC11   29     0.129000      1.00800 ; qtot -0.509
    30   h1     1   LIG  HC12   30     0.094700      1.00800 ; qtot -0.414
    31   hc     1   LIG  HC13   31     0.049700      1.00800 ; qtot -0.365
    32   hc     1   LIG  HC14   32     0.049700      1.00800 ; qtot -0.315
    33   hc     1   LIG  HC15   33     0.049700      1.00800 ; qtot -0.265
    34   hc     1   LIG  HC16   34     0.045700      1.00800 ; qtot -0.220
    35   hc     1   LIG  HC17   35     0.045700      1.00800 ; qtot -0.174
    36   hc     1   LIG  HC18   36     0.045700      1.00800 ; qtot -0.128
    37   hc     1   LIG  HC19   37     0.042700      1.00800 ; qtot -0.085
    38   hc     1   LIG  HC20   38     0.042700      1.00800 ; qtot -0.043
    39   hc     1   LIG  HC21   39     0.042700      1.00800 ; qtot -0.000

[ bonds ]
;   ai     aj funct   r             k
     1      2   1    1.5372e-01    1.9049e+05 ;      C - C1    
     1     31   1    1.0962e-01    2.8891e+05 ;      C - HC13  
     1     32   1    1.0962e-01    2.8891e+05 ;      C - HC14  
     1     33   1    1.0962e-01    2.8891e+05 ;      C - HC15  
     2      3   1    1.5483e-01    1.8418e+05 ;     C1 - C2    
     2     13   1    1.5346e-01    1.9200e+05 ;     C1 - C12   
     2     18   1    1.0954e-01    2.8989e+05 ;     C1 - HC    
     3      4   1    1.5372e-01    1.9049e+05 ;     C2 - C3    
     3     12   1    1.5483e-01    1.8418e+05 ;     C2 - C11   
     3     19   1    1.0954e-01    2.8989e+05 ;     C2 - HC1   
     4      5   1    1.5354e-01    1.9154e+05 ;     C3 - C4    
     4     20   1    1.0962e-01    2.8891e+05 ;     C3 - HC2   
     4     21   1    1.0962e-01    2.8891e+05 ;     C3 - HC3   
     5      6   1    1.5088e-01    2.0786e+05 ;     C4 - C5    
     5     22   1    1.0962e-01    2.8891e+05 ;     C4 - HC4   
     5     23   1    1.0962e-01    2.8891e+05 ;     C4 - HC5   
     6      7   1    1.3379e-01    3.6484e+05 ;     C5 - C6    
     6     15   1    1.5088e-01    2.0786e+05 ;     C5 - C14   
     7      8   1    1.5088e-01    2.0786e+05 ;     C6 - C7    
     7     24   1    1.0882e-01    2.9898e+05 ;     C6 - HC6   
     8      9   1    1.5354e-01    1.9154e+05 ;     C7 - C8    
     8     25   1    1.0962e-01    2.8891e+05 ;     C7 - HC7   
     8     26   1    1.0962e-01    2.8891e+05 ;     C7 - HC8   
     9     10   1    1.5088e-01    2.0786e+05 ;     C8 - C9    
     9     27   1    1.0962e-01    2.8891e+05 ;     C8 - HC9   
     9     28   1    1.0962e-01    2.8891e+05 ;     C8 - HC10  
    10     11   1    1.3379e-01    3.6484e+05 ;     C9 - C10   
    10     14   1    1.5088e-01    2.0786e+05 ;     C9 - C13   
    11     12   1    1.5154e-01    2.0366e+05 ;    C10 - C11   
    11     29   1    1.0882e-01    2.9898e+05 ;    C10 - HC11  
    12     16   1    1.4346e-01    2.3063e+05 ;    C11 - O     
    12     30   1    1.0972e-01    2.8768e+05 ;    C11 - HC12  
    13     16   1    1.3621e-01    2.9398e+05 ;    C12 - O     
    13     17   1    1.2190e-01    4.9421e+05 ;    C12 - O1    
    14     34   1    1.0962e-01    2.8891e+05 ;    C13 - HC16  
    14     35   1    1.0962e-01    2.8891e+05 ;    C13 - HC17  
    14     36   1    1.0962e-01    2.8891e+05 ;    C13 - HC18  
    15     37   1    1.0962e-01    2.8891e+05 ;    C14 - HC19  
    15     38   1    1.0962e-01    2.8891e+05 ;    C14 - HC20  
    15     39   1    1.0962e-01    2.8891e+05 ;    C14 - HC21  

[ pairs ]
;   ai     aj    funct
     1      4      1 ;      C - C3    
     1     12      1 ;      C - C11   
     1     16      1 ;      C - O     
     1     17      1 ;      C - O1    
     1     19      1 ;      C - HC1   
     2      5      1 ;     C1 - C4    
     2     11      1 ;     C1 - C10   
     2     20      1 ;     C1 - HC2   
     2     21      1 ;     C1 - HC3   
     2     30      1 ;     C1 - HC12  
     3      6      1 ;     C2 - C5    
     3     10      1 ;     C2 - C9    
     3     17      1 ;     C2 - O1    
     3     22      1 ;     C2 - HC4   
     3     23      1 ;     C2 - HC5   
     3     29      1 ;     C2 - HC11  
     4      7      1 ;     C3 - C6    
     4     11      1 ;     C3 - C10   
     4     13      1 ;     C3 - C12   
     4     15      1 ;     C3 - C14   
     4     16      1 ;     C3 - O     
     4     18      1 ;     C3 - HC    
     4     30      1 ;     C3 - HC12  
     5      8      1 ;     C4 - C7    
     5     12      1 ;     C4 - C11   
     5     19      1 ;     C4 - HC1   
     5     24      1 ;     C4 - HC6   
     5     37      1 ;     C4 - HC19  
     5     38      1 ;     C4 - HC20  
     5     39      1 ;     C4 - HC21  
     6      9      1 ;     C5 - C8    
     6     20      1 ;     C5 - HC2   
     6     21      1 ;     C5 - HC3   
     6     25      1 ;     C5 - HC7   
     6     26      1 ;     C5 - HC8   
     7     10      1 ;     C6 - C9    
     7     22      1 ;     C6 - HC4   
     7     23      1 ;     C6 - HC5   
     7     27      1 ;     C6 - HC9   
     7     28      1 ;     C6 - HC10  
     7     37      1 ;     C6 - HC19  
     7     38      1 ;     C6 - HC20  
     7     39      1 ;     C6 - HC21  
     8     11      1 ;     C7 - C10   
     8     14      1 ;     C7 - C13   
     8     15      1 ;     C7 - C14   
     9     12      1 ;     C8 - C11   
     9     24      1 ;     C8 - HC6   
     9     29      1 ;     C8 - HC11  
     9     34      1 ;     C8 - HC16  
     9     35      1 ;     C8 - HC17  
     9     36      1 ;     C8 - HC18  
    10     16      1 ;     C9 - O     
    10     25      1 ;     C9 - HC7   
    10     26      1 ;     C9 - HC8   
    10     30      1 ;     C9 - HC12  
    11     13      1 ;    C10 - C12   
    11     19      1 ;    C10 - HC1   
    11     27      1 ;    C10 - HC9   
    11     28      1 ;    C10 - HC10  
    11     34      1 ;    C10 - HC16  
    11     35      1 ;    C10 - HC17  
    11     36      1 ;    C10 - HC18  
    12     14      1 ;    C11 - C13   
    12     17      1 ;    C11 - O1    
    12     18      1 ;    C11 - HC    
    12     20      1 ;    C11 - HC2   
    12     21      1 ;    C11 - HC3   
    13     19      1 ;    C12 - HC1   
    13     30      1 ;    C12 - HC12  
    14     27      1 ;    C13 - HC9   
    14     28      1 ;    C13 - HC10  
    14     29      1 ;    C13 - HC11  
    15     22      1 ;    C14 - HC4   
    15     23      1 ;    C14 - HC5   
    15     24      1 ;    C14 - HC6   
    16     18      1 ;      O - HC    
    16     19      1 ;      O - HC1   
    16     29      1 ;      O - HC11  
    17     18      1 ;     O1 - HC    
    18     19      1 ;     HC - HC1   
    19     20      1 ;    HC1 - HC2   
    19     21      1 ;    HC1 - HC3   
    19     30      1 ;    HC1 - HC12  
    20     22      1 ;    HC2 - HC4   
    20     23      1 ;    HC2 - HC5   
    21     22      1 ;    HC3 - HC4   
    21     23      1 ;    HC3 - HC5   
    24     25      1 ;    HC6 - HC7   
    24     26      1 ;    HC6 - HC8   
    25     27      1 ;    HC7 - HC9   
    25     28      1 ;    HC7 - HC10  
    26     27      1 ;    HC8 - HC9   
    26     28      1 ;    HC8 - HC10  
    29     30      1 ;   HC11 - HC12  
    31      3      1 ;   HC13 - C2    
    31     13      1 ;   HC13 - C12   
    31     18      1 ;   HC13 - HC    
    32      3      1 ;   HC14 - C2    
    32     13      1 ;   HC14 - C12   
    32     18      1 ;   HC14 - HC    
    33      3      1 ;   HC15 - C2    
    33     13      1 ;   HC15 - C12   
    33     18      1 ;   HC15 - HC    

[ angles ]
;   ai     aj     ak    funct   theta         cth
     1      2      3      1    1.1360e+02    4.9647e+02 ;      C - C1     - C2    
     1      2     13      1    1.1065e+02    5.0534e+02 ;      C - C1     - C12   
     1      2     18      1    1.0779e+02    3.6484e+02 ;      C - C1     - HC    
     2      1     31      1    1.1053e+02    3.6033e+02 ;     C1 - C      - HC13  
     2      1     32      1    1.1053e+02    3.6033e+02 ;     C1 - C      - HC14  
     2      1     33      1    1.1053e+02    3.6033e+02 ;     C1 - C      - HC15  
     2      3      4      1    1.1360e+02    4.9647e+02 ;     C1 - C2     - C3    
     2      3     12      1    1.0383e+02    5.1748e+02 ;     C1 - C2     - C11   
     2      3     19      1    1.1117e+02    3.5690e+02 ;     C1 - C2     - HC1   
     2     13     16      1    1.0969e+02    6.5362e+02 ;     C1 - C12    - O     
     2     13     17      1    1.2567e+02    6.3019e+02 ;     C1 - C12    - O1    
     3      2     13      1    1.0786e+02    5.0995e+02 ;     C2 - C1     - C12   
     3      2     18      1    1.1117e+02    3.5690e+02 ;     C2 - C1     - HC    
     3      4      5      1    1.1370e+02    4.9840e+02 ;     C2 - C3     - C4    
     3      4     20      1    1.1053e+02    3.6033e+02 ;     C2 - C3     - HC2   
     3      4     21      1    1.1053e+02    3.6033e+02 ;     C2 - C3     - HC3   
     3     12     11      1    1.0794e+02    5.1287e+02 ;     C2 - C11    - C10   
     3     12     16      1    1.0614e+02    6.4793e+02 ;     C2 - C11    - O     
     3     12     30      1    1.1117e+02    3.5690e+02 ;     C2 - C11    - HC12  
     4      3     12      1    1.1360e+02    4.9647e+02 ;     C3 - C2     - C11   
     4      3     19      1    1.0779e+02    3.6484e+02 ;     C3 - C2     - HC1   
     4      5      6      1    1.1258e+02    5.0543e+02 ;     C3 - C4     - C5    
     4      5     22      1    1.0968e+02    3.6208e+02 ;     C3 - C4     - HC4   
     4      5     23      1    1.0968e+02    3.6208e+02 ;     C3 - C4     - HC5   
     5      4     20      1    1.0968e+02    3.6208e+02 ;     C4 - C3     - HC2   
     5      4     21      1    1.0968e+02    3.6208e+02 ;     C4 - C3     - HC3   
     5      6      7      1    1.2495e+02    5.0944e+02 ;     C4 - C5     - C6    
     5      6     15      1    1.1501e+02    5.0459e+02 ;     C4 - C5     - C14   
     6      5     22      1    1.1065e+02    3.6618e+02 ;     C5 - C4     - HC4   
     6      5     23      1    1.1065e+02    3.6618e+02 ;     C5 - C4     - HC5   
     6      7      8      1    1.2495e+02    5.0944e+02 ;     C5 - C6     - C7    
     6      7     24      1    1.2039e+02    3.8802e+02 ;     C5 - C6     - HC6   
     6     15     37      1    1.1065e+02    3.6618e+02 ;     C5 - C14    - HC19  
     6     15     38      1    1.1065e+02    3.6618e+02 ;     C5 - C14    - HC20  
     6     15     39      1    1.1065e+02    3.6618e+02 ;     C5 - C14    - HC21  
     7      6     15      1    1.2495e+02    5.0944e+02 ;     C6 - C5     - C14   
     7      8      9      1    1.1258e+02    5.0543e+02 ;     C6 - C7     - C8    
     7      8     25      1    1.1065e+02    3.6618e+02 ;     C6 - C7     - HC7   
     7      8     26      1    1.1065e+02    3.6618e+02 ;     C6 - C7     - HC8   
     8      7     24      1    1.1505e+02    3.5941e+02 ;     C7 - C6     - HC6   
     8      9     10      1    1.1258e+02    5.0543e+02 ;     C7 - C8     - C9    
     8      9     27      1    1.0968e+02    3.6208e+02 ;     C7 - C8     - HC9   
     8      9     28      1    1.0968e+02    3.6208e+02 ;     C7 - C8     - HC10  
     9      8     25      1    1.0968e+02    3.6208e+02 ;     C8 - C7     - HC7   
     9      8     26      1    1.0968e+02    3.6208e+02 ;     C8 - C7     - HC8   
     9     10     11      1    1.2495e+02    5.0944e+02 ;     C8 - C9     - C10   
     9     10     14      1    1.1501e+02    5.0459e+02 ;     C8 - C9     - C13   
    10      9     27      1    1.1065e+02    3.6618e+02 ;     C9 - C8     - HC9   
    10      9     28      1    1.1065e+02    3.6618e+02 ;     C9 - C8     - HC10  
    10     11     12      1    1.1893e+02    5.2066e+02 ;     C9 - C10    - C11   
    10     11     29      1    1.2039e+02    3.8802e+02 ;     C9 - C10    - HC11  
    10     14     34      1    1.1065e+02    3.6618e+02 ;     C9 - C13    - HC16  
    10     14     35      1    1.1065e+02    3.6618e+02 ;     C9 - C13    - HC17  
    10     14     36      1    1.1065e+02    3.6618e+02 ;     C9 - C13    - HC18  
    11     10     14      1    1.2495e+02    5.0944e+02 ;    C10 - C9     - C13   
    11     12     16      1    1.0664e+02    6.5454e+02 ;    C10 - C11    - O     
    11     12     30      1    1.1143e+02    3.6342e+02 ;    C10 - C11    - HC12  
    12      3     19      1    1.1117e+02    3.5690e+02 ;    C11 - C2     - HC1   
    12     11     29      1    1.2133e+02    3.4861e+02 ;    C11 - C10    - HC11  
    12     16     13      1    1.1093e+02    7.6249e+02 ;    C11 - O      - C12   
    13      2     18      1    1.0864e+02    3.6401e+02 ;    C12 - C1     - HC    
    16     12     30      1    1.0846e+02    4.7229e+02 ;      O - C11    - HC12  
    16     13     17      1    1.2320e+02    8.4734e+02 ;      O - C12    - O1    
    20      4     21      1    1.0773e+02    2.9957e+02 ;    HC2 - C3     - HC3   
    22      5     23      1    1.0773e+02    2.9957e+02 ;    HC4 - C4     - HC5   
    25      8     26      1    1.0773e+02    2.9957e+02 ;    HC7 - C7     - HC8   
    27      9     28      1    1.0773e+02    2.9957e+02 ;    HC9 - C8     - HC10  
    31      1     32      1    1.0773e+02    2.9957e+02 ;   HC13 - C      - HC14  
    31      1     33      1    1.0773e+02    2.9957e+02 ;   HC13 - C      - HC15  
    32      1     33      1    1.0773e+02    2.9957e+02 ;   HC14 - C      - HC15  
    34     14     35      1    1.0773e+02    2.9957e+02 ;   HC16 - C13    - HC17  
    34     14     36      1    1.0773e+02    2.9957e+02 ;   HC16 - C13    - HC18  
    35     14     36      1    1.0773e+02    2.9957e+02 ;   HC17 - C13    - HC18  
    37     15     38      1    1.0773e+02    2.9957e+02 ;   HC19 - C14    - HC20  
    37     15     39      1    1.0773e+02    2.9957e+02 ;   HC19 - C14    - HC21  
    38     15     39      1    1.0773e+02    2.9957e+02 ;   HC20 - C14    - HC21  

[ dihedrals ] ; propers
; for gromacs 4.5 or higher, using funct 9
;    i      j      k      l   func   phase     kd      pn
     1      2      3      4      9     0.00   2.17568   3 ;      C-    C1-    C2-    C3
     1      2      3     12      9     0.00   2.17568   3 ;      C-    C1-    C2-   C11
     1      2      3     19      9     0.00   0.54392   3 ;      C-    C1-    C2-   HC1
     1      2     13     16      9   180.00   0.00000   2 ;      C-    C1-   C12-     O
     1      2     13     17      9     0.00   2.84512   1 ;      C-    C1-   C12-    O1
     1      2     13     17      9   180.00   0.83680   2 ;      C-    C1-   C12-    O1
     1      2     13     17      9   180.00   1.84096   3 ;      C-    C1-   C12-    O1
     2      3      4      5      9     0.00   2.17568   3 ;     C1-    C2-    C3-    C4
     2      3      4     20      9     0.00   0.54392   3 ;     C1-    C2-    C3-   HC2
     2      3      4     21      9     0.00   0.54392   3 ;     C1-    C2-    C3-   HC3
     2      3     12     11      9     0.00   0.65084   3 ;     C1-    C2-   C11-   C10
     2      3     12     16      9     0.00   0.65084   3 ;     C1-    C2-   C11-     O
     2      3     12     30      9     0.00   0.65084   3 ;     C1-    C2-   C11-  HC12
     2     13     16     12      9     0.00   3.13800   3 ;     C1-   C12-     O-   C11
     2     13     16     12      9   180.00   7.90776   1 ;     C1-   C12-     O-   C11
     2     13     16     12      9   180.00  13.76536   2 ;     C1-   C12-     O-   C11
     3      2     13     16      9   180.00   0.00000   2 ;     C2-    C1-   C12-     O
     3      2     13     17      9     0.00   2.84512   1 ;     C2-    C1-   C12-    O1
     3      2     13     17      9   180.00   0.83680   2 ;     C2-    C1-   C12-    O1
     3      2     13     17      9   180.00   1.84096   3 ;     C2-    C1-   C12-    O1
     3      4      5      6      9     0.00   0.65084   3 ;     C2-    C3-    C4-    C5
     3      4      5     22      9     0.00   0.54392   3 ;     C2-    C3-    C4-   HC4
     3      4      5     23      9     0.00   0.54392   3 ;     C2-    C3-    C4-   HC5
     3     12     11     10      9     0.00   0.00000   0 ;     C2-   C11-   C10-    C9
     3     12     11     29      9     0.00   0.00000   0 ;     C2-   C11-   C10-  HC11
     3     12     16     13      9     0.00   1.60247   3 ;     C2-   C11-     O-   C12
     3     12     16     13      9   180.00   3.34720   1 ;     C2-   C11-     O-   C12
     4      3      2     13      9     0.00   0.00000   0 ;     C3-    C2-    C1-   C12
     4      3      2     13      9     0.00   0.16736   2 ;     C3-    C2-    C1-   C12
     4      3      2     13      9   180.00   1.92464   1 ;     C3-    C2-    C1-   C12
     4      3      2     18      9     0.00   0.54392   3 ;     C3-    C2-    C1-    HC
     4      3     12     11      9     0.00   0.65084   3 ;     C3-    C2-   C11-   C10
     4      3     12     16      9     0.00   0.65084   3 ;     C3-    C2-   C11-     O
     4      3     12     30      9     0.00   0.65084   3 ;     C3-    C2-   C11-  HC12
     4      5      6      7      9     0.00   0.00000   0 ;     C3-    C4-    C5-    C6
     4      5      6     15      9     0.00   0.00000   0 ;     C3-    C4-    C5-   C14
     5      4      3     12      9     0.00   2.17568   3 ;     C4-    C3-    C2-   C11
     5      4      3     19      9     0.00   0.54392   3 ;     C4-    C3-    C2-   HC1
     5      6      7      8      9     0.00   0.62760   1 ;     C4-    C5-    C6-    C7
     5      6      7      8      9   180.00   5.56472   3 ;     C4-    C5-    C6-    C7
     5      6      7      8      9   180.00  24.18352   2 ;     C4-    C5-    C6-    C7
     5      6      7     24      9   180.00  27.82360   2 ;     C4-    C5-    C6-   HC6
     5      6     15     37      9     0.00   0.62760   3 ;     C4-    C5-   C14-  HC19
     5      6     15     38      9     0.00   0.62760   3 ;     C4-    C5-   C14-  HC20
     5      6     15     39      9     0.00   0.62760   3 ;     C4-    C5-   C14-  HC21
     6      5      4     20      9     0.00   0.65084   3 ;     C5-    C4-    C3-   HC2
     6      5      4     21      9     0.00   0.65084   3 ;     C5-    C4-    C3-   HC3
     6      7      8      9      9     0.00   0.00000   0 ;     C5-    C6-    C7-    C8
     6      7      8     25      9   180.00   1.08784   3 ;     C5-    C6-    C7-   HC7
     6      7      8     26      9   180.00   1.08784   3 ;     C5-    C6-    C7-   HC8
     7      6      5     22      9   180.00   1.08784   3 ;     C6-    C5-    C4-   HC4
     7      6      5     23      9   180.00   1.08784   3 ;     C6-    C5-    C4-   HC5
     7      6     15     37      9   180.00   1.08784   3 ;     C6-    C5-   C14-  HC19
     7      6     15     38      9   180.00   1.08784   3 ;     C6-    C5-   C14-  HC20
     7      6     15     39      9   180.00   1.08784   3 ;     C6-    C5-   C14-  HC21
     7      8      9     10      9     0.00   0.65084   3 ;     C6-    C7-    C8-    C9
     7      8      9     27      9     0.00   0.65084   3 ;     C6-    C7-    C8-   HC9
     7      8      9     28      9     0.00   0.65084   3 ;     C6-    C7-    C8-  HC10
     8      7      6     15      9     0.00   0.62760   1 ;     C7-    C6-    C5-   C14
     8      7      6     15      9   180.00   5.56472   3 ;     C7-    C6-    C5-   C14
     8      7      6     15      9   180.00  24.18352   2 ;     C7-    C6-    C5-   C14
     8      9     10     11      9     0.00   0.00000   0 ;     C7-    C8-    C9-   C10
     8      9     10     14      9     0.00   0.00000   0 ;     C7-    C8-    C9-   C13
     9      8      7     24      9     0.00   0.00000   0 ;     C8-    C7-    C6-   HC6
     9     10     11     12      9     0.00   0.62760   1 ;     C8-    C9-   C10-   C11
     9     10     11     12      9   180.00   5.56472   3 ;     C8-    C9-   C10-   C11
     9     10     11     12      9   180.00  24.18352   2 ;     C8-    C9-   C10-   C11
     9     10     11     29      9   180.00  27.82360   2 ;     C8-    C9-   C10-  HC11
     9     10     14     34      9     0.00   0.62760   3 ;     C8-    C9-   C13-  HC16
     9     10     14     35      9     0.00   0.62760   3 ;     C8-    C9-   C13-  HC17
     9     10     14     36      9     0.00   0.62760   3 ;     C8-    C9-   C13-  HC18
    10      9      8     25      9     0.00   0.65084   3 ;     C9-    C8-    C7-   HC7
    10      9      8     26      9     0.00   0.65084   3 ;     C9-    C8-    C7-   HC8
    10     11     12     16      9     0.00   0.00000   0 ;     C9-   C10-   C11-     O
    10     11     12     30      9     0.00   0.00000   0 ;     C9-   C10-   C11-  HC12
    11     10      9     27      9   180.00   1.08784   3 ;    C10-    C9-    C8-   HC9
    11     10      9     28      9   180.00   1.08784   3 ;    C10-    C9-    C8-  HC10
    11     10     14     34      9   180.00   1.08784   3 ;    C10-    C9-   C13-  HC16
    11     10     14     35      9   180.00   1.08784   3 ;    C10-    C9-   C13-  HC17
    11     10     14     36      9   180.00   1.08784   3 ;    C10-    C9-   C13-  HC18
    11     12      3     19      9     0.00   0.65084   3 ;    C10-   C11-    C2-   HC1
    11     12     16     13      9     0.00   1.60387   3 ;    C10-   C11-     O-   C12
    12      3      2     13      9     0.00   0.00000   0 ;    C11-    C2-    C1-   C12
    12      3      2     13      9     0.00   0.16736   2 ;    C11-    C2-    C1-   C12
    12      3      2     13      9   180.00   1.92464   1 ;    C11-    C2-    C1-   C12
    12      3      2     18      9     0.00   0.54392   3 ;    C11-    C2-    C1-    HC
    12      3      4     20      9     0.00   0.54392   3 ;    C11-    C2-    C3-   HC2
    12      3      4     21      9     0.00   0.54392   3 ;    C11-    C2-    C3-   HC3
    12     11     10     14      9     0.00   0.62760   1 ;    C11-   C10-    C9-   C13
    12     11     10     14      9   180.00   5.56472   3 ;    C11-   C10-    C9-   C13
    12     11     10     14      9   180.00  24.18352   2 ;    C11-   C10-    C9-   C13
    12     16     13     17      9   180.00   5.85760   1 ;    C11-     O-   C12-    O1
    12     16     13     17      9   180.00  11.29680   2 ;    C11-     O-   C12-    O1
    13      2      3     19      9     0.00   0.65084   3 ;    C12-    C1-    C2-   HC1
    13     16     12     30      9     0.00   1.60387   3 ;    C12-     O-   C11-  HC12
    14     10      9     27      9     0.00   0.62760   3 ;    C13-    C9-    C8-   HC9
    14     10      9     28      9     0.00   0.62760   3 ;    C13-    C9-    C8-  HC10
    14     10     11     29      9   180.00  27.82360   2 ;    C13-    C9-   C10-  HC11
    15      6      5     22      9     0.00   0.62760   3 ;    C14-    C5-    C4-   HC4
    15      6      5     23      9     0.00   0.62760   3 ;    C14-    C5-    C4-   HC5
    15      6      7     24      9   180.00  27.82360   2 ;    C14-    C5-    C6-   HC6
    16     12      3     19      9     0.00   0.00000   0 ;      O-   C11-    C2-   HC1
    16     12      3     19      9     0.00   1.04600   1 ;      O-   C11-    C2-   HC1
    16     12     11     29      9     0.00   0.00000   0 ;      O-   C11-   C10-  HC11
    16     13      2     18      9   180.00   0.00000   2 ;      O-   C12-    C1-    HC
    17     13      2     18      9     0.00  16.86152   1 ;     O1-   C12-    C1-    HC
    17     13      2     18      9   180.00  15.31344   2 ;     O1-   C12-    C1-    HC
    18      2      3     19      9     0.00   0.50208   3 ;     HC-    C1-    C2-   HC1
    19      3      4     20      9     0.00   0.50208   3 ;    HC1-    C2-    C3-   HC2
    19      3      4     21      9     0.00   0.50208   3 ;    HC1-    C2-    C3-   HC3
    19      3     12     30      9     0.00   0.65084   3 ;    HC1-    C2-   C11-  HC12
    20      4      5     22      9     0.00   0.50208   3 ;    HC2-    C3-    C4-   HC4
    20      4      5     23      9     0.00   0.50208   3 ;    HC2-    C3-    C4-   HC5
    21      4      5     22      9     0.00   0.50208   3 ;    HC3-    C3-    C4-   HC4
    21      4      5     23      9     0.00   0.50208   3 ;    HC3-    C3-    C4-   HC5
    24      7      8     25      9     0.00   0.00000   0 ;    HC6-    C6-    C7-   HC7
    24      7      8     26      9     0.00   0.00000   0 ;    HC6-    C6-    C7-   HC8
    25      8      9     27      9     0.00   0.50208   3 ;    HC7-    C7-    C8-   HC9
    25      8      9     28      9     0.00   0.50208   3 ;    HC7-    C7-    C8-  HC10
    26      8      9     27      9     0.00   0.50208   3 ;    HC8-    C7-    C8-   HC9
    26      8      9     28      9     0.00   0.50208   3 ;    HC8-    C7-    C8-  HC10
    29     11     12     30      9     0.00   0.00000   0 ;   HC11-   C10-   C11-  HC12
    31      1      2      3      9     0.00   0.54392   3 ;   HC13-     C-    C1-    C2
    31      1      2     13      9     0.00   0.65084   3 ;   HC13-     C-    C1-   C12
    31      1      2     18      9     0.00   0.50208   3 ;   HC13-     C-    C1-    HC
    32      1      2      3      9     0.00   0.54392   3 ;   HC14-     C-    C1-    C2
    32      1      2     13      9     0.00   0.65084   3 ;   HC14-     C-    C1-   C12
    32      1      2     18      9     0.00   0.50208   3 ;   HC14-     C-    C1-    HC
    33      1      2      3      9     0.00   0.54392   3 ;   HC15-     C-    C1-    C2
    33      1      2     13      9     0.00   0.65084   3 ;   HC15-     C-    C1-   C12
    33      1      2     18      9     0.00   0.50208   3 ;   HC15-     C-    C1-    HC

[ dihedrals ] ; impropers
; treated as propers in GROMACS to use correct AMBER analytical function
;    i      j      k      l   func   phase     kd      pn
     2     17     13     16      4   180.00   4.60240   2 ;     C1-    O1-   C12-     O
     6      8      7     24      4   180.00   4.60240   2 ;     C5-    C7-    C6-   HC6
     7      5      6     15      4   180.00   4.60240   2 ;     C6-    C4-    C5-   C14
    10     12     11     29      4   180.00   4.60240   2 ;     C9-   C11-   C10-  HC11
    11      9     10     14      4   180.00   4.60240   2 ;    C10-    C8-    C9-   C13
