LIG_GMX.gro created by acpype (v: 2023.10.27) on Wed Aug  5 14:06:02 2026
 39
    1  LIG    C    1   0.843   1.288   0.671
    1  LIG   C1    2   0.874   1.237   0.812
    1  LIG   C2    3   0.757   1.179   0.895
    1  LIG   C3    4   0.616   1.242   0.871
    1  LIG   C4    5   0.543   1.265   1.004
    1  LIG   C5    6   0.392   1.244   0.999
    1  LIG   C6    7   0.334   1.137   1.062
    1  LIG   C7    8   0.417   1.029   1.129
    1  LIG   C8    9   0.496   0.951   1.021
    1  LIG   C9   10   0.631   0.903   1.070
    1  LIG  C10   11   0.748   0.937   1.008
    1  LIG  C11   12   0.769   1.022   0.882
    1  LIG  C12   13   0.960   1.116   0.804
    1  LIG  C13   14   0.635   0.812   1.190
    1  LIG  C14   15   0.305   1.344   0.927
    1  LIG    O   16   0.899   1.004   0.842
    1  LIG   O1   17   1.073   1.117   0.759
    1  LIG   HC   18   0.925   1.315   0.869
    1  LIG  HC1   19   0.782   1.201   0.999
    1  LIG  HC2   20   0.628   1.337   0.819
    1  LIG  HC3   21   0.557   1.175   0.808
    1  LIG  HC4   22   0.562   1.368   1.035
    1  LIG  HC5   23   0.585   1.198   1.078
    1  LIG  HC6   24   0.227   1.129   1.063
    1  LIG  HC7   25   0.487   1.075   1.199
    1  LIG  HC8   26   0.351   0.961   1.182
    1  LIG  HC9   27   0.512   1.015   0.935
    1  LIG HC10   28   0.438   0.864   0.990
    1  LIG HC11   29   0.838   0.898   1.054
    1  LIG HC12   30   0.702   0.987   0.803
    1  LIG HC13   31   0.935   1.299   0.614
    1  LIG HC14   32   0.793   1.385   0.678
    1  LIG HC15   33   0.777   1.218   0.620
    1  LIG HC16   34   0.738   0.787   1.214
    1  LIG HC17   35   0.579   0.721   1.168
    1  LIG HC18   36   0.590   0.863   1.276
    1  LIG HC19   37   0.201   1.314   0.934
    1  LIG HC20   38   0.318   1.442   0.973
    1  LIG HC21   39   0.335   1.349   0.823
   17.44200    14.42600    13.22200
